DF-ISE text

Info {
  version   = 1.0
  type      = xyplot
  datasets  = [
    "time"
    "ntype OuterVoltage" "ntype InnerVoltage" "ntype QuasiFermiPotential" "ntype DisplacementCurrent" "ntype eCurrent"
    "ntype hCurrent" "ntype TotalCurrent" "ntype Charge" "ptype OuterVoltage" "ptype InnerVoltage"
    "ptype QuasiFermiPotential" "ptype DisplacementCurrent" "ptype eCurrent" "ptype hCurrent" "ptype TotalCurrent"
    "ptype Charge" ]
  functions = [
    Time
    OuterVoltage InnerVoltage QuasiFermiPotential DisplacementCurrent eCurrent
    hCurrent TotalCurrent Charge OuterVoltage InnerVoltage
    QuasiFermiPotential DisplacementCurrent eCurrent hCurrent TotalCurrent
    Charge ]
}

Data {
      0.00000000000000E+00
      0.00000000000000E+00   0.00000000000000E+00   0.00000000000000E+00   0.00000000000000E+00  -3.86886862471550E-24
      3.86886861827382E-24  -6.44167632038402E-33   7.45145855221176E-30   0.00000000000000E+00   0.00000000000000E+00
      0.00000000000000E+00   0.00000000000000E+00   4.23194733475567E-29  -3.40495035647666E-24  -3.40490803700331E-24
      8.22563606412987E-31
      0.00000000000000E+00
      0.00000000000000E+00   0.00000000000000E+00   0.00000000000000E+00   0.00000000000000E+00  -9.15071777292376E-25
      9.13807537457850E-25  -1.26423983452569E-27  -3.48379880363147E-30   0.00000000000000E+00   0.00000000000000E+00
      0.00000000000000E+00   0.00000000000000E+00  -7.55282731933850E-29  -3.39497589118433E-24  -3.39505141945753E-24
      6.77405322928342E-31
      0.00000000000000E+00
      0.00000000000000E+00   0.00000000000000E+00   0.00000000000000E+00   0.00000000000000E+00  -8.00055609070689E-25
      7.99761192986185E-25  -2.94416084504715E-28  -2.49672247593589E-29   0.00000000000000E+00   0.00000000000000E+00
      0.00000000000000E+00   0.00000000000000E+00   3.00160680707206E-29  -1.44438660253674E-26  -1.44138499572967E-26
     -6.16922704809740E-31
      5.00000000000000E-03
      6.25000000000000E-02   6.25000000000000E-02   0.00000000000000E+00   0.00000000000000E+00   9.18819847493743E-13
      1.21638605853405E-13   1.04045845334715E-12   3.48379880363147E-29   0.00000000000000E+00   0.00000000000000E+00
      0.00000000000000E+00   0.00000000000000E+00  -8.24377102853746E-14  -9.58020996363344E-13  -1.04045870664872E-12
     -1.57254807108365E-31
      1.26666666666667E-02
      1.58333333333333E-01   1.58333333333333E-01   0.00000000000000E+00   0.00000000000000E+00   1.01025945739442E-11
      1.33020855644414E-12   1.14328031303883E-11  -5.03215382746768E-30   0.00000000000000E+00   0.00000000000000E+00
      0.00000000000000E+00   0.00000000000000E+00  -8.03941743492667E-13  -1.06288612302709E-11  -1.14328029737636E-11
      1.28525563502029E-32
      2.26666666666667E-02
      2.83333333333333E-01   2.83333333333333E-01   0.00000000000000E+00   0.00000000000000E+00   4.32756665354026E-11
      5.59925687769413E-12   4.88749234130967E-11  -1.64512721282597E-29   0.00000000000000E+00   0.00000000000000E+00
      0.00000000000000E+00   0.00000000000000E+00  -2.39684124963333E-12  -4.64780822941311E-11  -4.88749235437645E-11
      4.83860944948816E-31
      3.26666666666667E-02
      4.08333333333333E-01   4.08333333333333E-01   0.00000000000000E+00   0.00000000000000E+00   8.14000424312226E-11
      1.03533941786579E-11   9.17534366098804E-11   1.08384851668535E-29   0.00000000000000E+00   0.00000000000000E+00
      0.00000000000000E+00   0.00000000000000E+00  -3.38179358713943E-12  -8.83716431435132E-11  -9.17534367306526E-11
      1.81447854355806E-31
      4.26666666666667E-02
      5.33333333333333E-01   5.33333333333333E-01   0.00000000000000E+00   0.00000000000000E+00   1.18741027136182E-10
      1.48423515793124E-11   1.33583378715494E-10   2.69994407281439E-29   0.00000000000000E+00   0.00000000000000E+00
      0.00000000000000E+00   0.00000000000000E+00  -3.99876367106461E-12  -1.29584614923270E-10  -1.33583378594335E-10
     -1.39110021672785E-30
      5.26666666666667E-02
      6.58333333333333E-01   6.58333333333333E-01   0.00000000000000E+00   0.00000000000000E+00   1.55262970586957E-10
      1.90941791955421E-11   1.74357149782499E-10  -7.64500293019129E-30   0.00000000000000E+00   0.00000000000000E+00
      0.00000000000000E+00   0.00000000000000E+00  -4.43378713009998E-12  -1.69923362276582E-10  -1.74357149406682E-10
     -7.74177511918105E-31
      6.26666666666667E-02
      7.83333333333333E-01   7.83333333333333E-01   0.00000000000000E+00   0.00000000000000E+00   1.91080795966520E-10
      2.31426007807129E-11   2.14223396747233E-10  -1.93544377979526E-31   0.00000000000000E+00   0.00000000000000E+00
      0.00000000000000E+00   0.00000000000000E+00  -4.76565918034857E-12  -2.09457737920061E-10  -2.14223397100410E-10
     -2.41930472474408E-30
      7.26666666666667E-02
      9.08333333333333E-01   9.08333333333333E-01   0.00000000000000E+00   0.00000000000000E+00   2.26276400634430E-10
      2.70136836447588E-11   2.53290084279189E-10  -1.73222218291676E-29   0.00000000000000E+00   0.00000000000000E+00
      0.00000000000000E+00   0.00000000000000E+00  -5.03353627945728E-12  -2.48256548157875E-10  -2.53290084437332E-10
     -6.29019228433460E-31
      8.26666666666667E-02
      1.03333333333333E+00   1.03333333333333E+00   0.00000000000000E+00   0.00000000000000E+00   2.60914265861305E-10
      3.07286627224161E-11   2.91642928583722E-10  -1.05481685998842E-29   0.00000000000000E+00   0.00000000000000E+00
      0.00000000000000E+00   0.00000000000000E+00  -5.25920757261386E-12  -2.86383720836881E-10  -2.91642928409494E-10
      4.33055545729190E-30
      9.26666666666667E-02
      1.15833333333333E+00   1.15833333333333E+00   0.00000000000000E+00   0.00000000000000E+00   2.95049372461101E-10
      3.43055072082883E-11   3.29354879669389E-10  -6.77405322928342E-31   0.00000000000000E+00   0.00000000000000E+00
      0.00000000000000E+00   0.00000000000000E+00  -5.45580017255694E-12  -3.23899079631339E-10  -3.29354879803896E-10
      4.25797631554958E-30
      1.02666666666667E-01
      1.28333333333333E+00   1.28333333333333E+00   0.00000000000000E+00   0.00000000000000E+00   3.28730923859336E-10
      3.77597758111668E-11   3.66490699670503E-10   1.49996892934133E-29   0.00000000000000E+00   0.00000000000000E+00
      0.00000000000000E+00   0.00000000000000E+00  -5.63171291766139E-12  -3.60858986551174E-10  -3.66490699468835E-10
     -5.27408429994209E-30
      1.12666666666667E-01
      1.40833333333333E+00   1.40833333333333E+00   0.00000000000000E+00   0.00000000000000E+00   3.62004152245558E-10
      4.11051164066681E-11   4.03109268652226E-10   3.78379258949974E-29   0.00000000000000E+00   0.00000000000000E+00
      0.00000000000000E+00   0.00000000000000E+00  -5.79257946415366E-12  -3.97316689159530E-10  -4.03109268623684E-10
      1.04997825053893E-29
      1.22666666666667E-01
      1.53333333333333E+00   1.53333333333333E+00   0.00000000000000E+00   0.00000000000000E+00   3.94911106188657E-10
      4.43535860116400E-11   4.39264692200296E-10  -2.38059584914817E-29   0.00000000000000E+00   0.00000000000000E+00
      0.00000000000000E+00   0.00000000000000E+00  -5.94232217926339E-12  -4.33322370021593E-10  -4.39264692200857E-10
     -8.61272482008892E-30
      1.32666666666667E-01
      1.65833333333333E+00   1.65833333333333E+00   0.00000000000000E+00   0.00000000000000E+00   4.27490859886792E-10
      4.75158581270299E-11   4.75006718013822E-10  -1.93544377979526E-30   0.00000000000000E+00   0.00000000000000E+00
      0.00000000000000E+00   0.00000000000000E+00  -6.08375132331373E-12  -4.68922966662163E-10  -4.75006717985476E-10
      7.20952807973735E-30
      1.42666666666667E-01
      1.78333333333333E+00   1.78333333333333E+00   0.00000000000000E+00   0.00000000000000E+00   4.59779427154631E-10
      5.06013791530708E-11   5.10380806307702E-10   1.75157662071471E-29   0.00000000000000E+00   0.00000000000000E+00
      0.00000000000000E+00   0.00000000000000E+00  -6.21892292581867E-12  -5.04161883521225E-10  -5.10380806447043E-10
     -8.12886387514010E-30
      1.52666666666667E-01
      1.90833333333333E+00   1.90833333333333E+00   0.00000000000000E+00   0.00000000000000E+00   4.91809612043005E-10
      5.36185001837406E-11   5.45428112226746E-10   2.19672869006762E-29   0.00000000000000E+00   0.00000000000000E+00
      0.00000000000000E+00   0.00000000000000E+00  -6.34936286897289E-12  -5.39078749160960E-10  -5.45428112029933E-10
      1.44190561594747E-29
      1.62666666666667E-01
      2.03333333333333E+00   2.03333333333333E+00   0.00000000000000E+00   0.00000000000000E+00   5.23610947858971E-10
      5.65746124413330E-11   5.80185560300304E-10   3.21283667446014E-29   0.00000000000000E+00   0.00000000000000E+00
      0.00000000000000E+00   0.00000000000000E+00  -6.47621411443523E-12  -5.73709346500348E-10  -5.80185560614783E-10
     -1.37416508365464E-29
      1.72666666666667E-01
      2.15833333333333E+00   2.15833333333333E+00   0.00000000000000E+00   0.00000000000000E+00   5.55209811848451E-10
      5.94762936912556E-11   6.14686105539707E-10   3.96765974858029E-30   0.00000000000000E+00   0.00000000000000E+00
      0.00000000000000E+00   0.00000000000000E+00  -6.60033819284411E-12  -6.08085767300123E-10  -6.14686105492967E-10
     -6.77405322928342E-30
      1.82666666666667E-01
      2.28333333333333E+00   2.28333333333333E+00   0.00000000000000E+00   0.00000000000000E+00   5.86629743035320E-10
      6.23293812029546E-11   6.48959124238275E-10   9.96753546594560E-30   0.00000000000000E+00   0.00000000000000E+00
      0.00000000000000E+00   0.00000000000000E+00  -6.72238821457579E-12  -6.42236735919017E-10  -6.48959124133593E-10
     -2.03221596878503E-30
      1.92666666666667E-01
      2.40833333333333E+00   2.40833333333333E+00   0.00000000000000E+00   0.00000000000000E+00   6.17891692451342E-10
      6.51391719565333E-11   6.83030864407875E-10  -1.81931715300755E-29   0.00000000000000E+00   0.00000000000000E+00
      0.00000000000000E+00   0.00000000000000E+00  -6.84286316159424E-12  -6.76188001091264E-10  -6.83030864252858E-10
     -4.06443193757005E-30
      2.02666666666667E-01
      2.53333333333333E+00   2.53333333333333E+00   0.00000000000000E+00   0.00000000000000E+00   6.49014096235159E-10
      6.79104640100722E-11   7.16924560245232E-10   3.10638726657140E-29   0.00000000000000E+00   0.00000000000000E+00
      0.00000000000000E+00   0.00000000000000E+00  -6.96214813553172E-12  -7.09962411865529E-10  -7.16924560001061E-10
      1.86770324750243E-29
      2.12666666666667E-01
      2.65833333333333E+00   2.65833333333333E+00   0.00000000000000E+00   0.00000000000000E+00   6.80014175752788E-10
      7.06476806811811E-11   7.50661856433969E-10   1.06449407888739E-29   0.00000000000000E+00   0.00000000000000E+00
      0.00000000000000E+00   0.00000000000000E+00  -7.08055001010610E-12  -7.43581306593440E-10  -7.50661856603546E-10
      2.41930472474408E-30
      2.22666666666667E-01
      2.78333333333333E+00   2.78333333333333E+00   0.00000000000000E+00   0.00000000000000E+00   7.10906442518556E-10
      7.33549322206743E-11   7.84261374739231E-10   4.45152069352910E-30   0.00000000000000E+00   0.00000000000000E+00
      0.00000000000000E+00   0.00000000000000E+00  -7.19831618610125E-12  -7.77063058419358E-10  -7.84261374605460E-10
     -6.58050885130389E-30
      2.32666666666667E-01
      2.90833333333333E+00   2.90833333333333E+00   0.00000000000000E+00   0.00000000000000E+00   7.41704181461669E-10
      7.60361033028023E-11   8.17740284764471E-10  -8.41918044210939E-30   0.00000000000000E+00   0.00000000000000E+00
      0.00000000000000E+00   0.00000000000000E+00  -7.31565867976554E-12  -8.10424626109401E-10  -8.17740284789167E-10
     -9.67721889897631E-31
      2.42666666666667E-01
      3.03333333333333E+00   3.03333333333333E+00   0.00000000000000E+00   0.00000000000000E+00   7.72419029184535E-10
      7.86948205521491E-11   8.51113849736684E-10  -6.77405322928342E-30   0.00000000000000E+00   0.00000000000000E+00
      0.00000000000000E+00   0.00000000000000E+00  -7.43276670581502E-12  -8.43681083163459E-10  -8.51113849869274E-10
     -4.45152069352910E-30
      2.52666666666667E-01
      3.15833333333333E+00   3.15833333333333E+00   0.00000000000000E+00   0.00000000000000E+00   8.03061784981104E-10
      8.13346623203424E-11   8.84396447301447E-10  -2.63220354052156E-29   0.00000000000000E+00   0.00000000000000E+00
      0.00000000000000E+00   0.00000000000000E+00  -7.54966407546552E-12  -8.76846783218351E-10  -8.84396447293817E-10
      2.80639348070313E-30
      2.62666666666667E-01
      3.28333333333333E+00   3.28333333333333E+00   0.00000000000000E+00   0.00000000000000E+00   8.33642175811902E-10
      8.39591074921669E-11   9.17601283304069E-10  -9.48367452099679E-30   0.00000000000000E+00   0.00000000000000E+00
      0.00000000000000E+00   0.00000000000000E+00  -7.66881187754999E-12  -9.09932471431084E-10  -9.17601283308634E-10
     -2.41930472474408E-30
      2.72666666666667E-01
      3.40833333333333E+00   3.40833333333333E+00   0.00000000000000E+00   0.00000000000000E+00   8.64169172657071E-10
      8.65716032140695E-11   9.50740775871141E-10   1.72254496401778E-29   0.00000000000000E+00   0.00000000000000E+00
      0.00000000000000E+00   0.00000000000000E+00  -7.78971038117038E-12  -9.42951065526888E-10  -9.50740775908058E-10
     -5.80633133938579E-31
      2.82666666666667E-01
      3.53333333333333E+00   3.53333333333333E+00   0.00000000000000E+00   0.00000000000000E+00   8.94650899533735E-10
      8.91755961006545E-11   9.83826495634389E-10  -8.03209168615034E-30   0.00000000000000E+00   0.00000000000000E+00
      0.00000000000000E+00   0.00000000000000E+00  -7.91192318003391E-12  -9.75914572548045E-10  -9.83826495728078E-10
     -2.03221596878503E-29
      2.92666666666667E-01
      3.65833333333333E+00   3.65833333333333E+00   0.00000000000000E+00   0.00000000000000E+00   9.25094608245291E-10
      9.17745710141223E-11   1.01686917925941E-09  -2.16769703337069E-29   0.00000000000000E+00   0.00000000000000E+00
      0.00000000000000E+00   0.00000000000000E+00  -8.03590834257292E-12  -1.00883327089969E-09  -1.01686917924227E-09
      6.96759760726295E-30
      3.02666666666667E-01
      3.78333333333333E+00   3.78333333333333E+00   0.00000000000000E+00   0.00000000000000E+00   9.55506769192919E-10
      9.43720951699099E-11   1.04987886436283E-09  -7.25791417423224E-30   0.00000000000000E+00   0.00000000000000E+00
      0.00000000000000E+00   0.00000000000000E+00  -8.16197966856666E-12  -1.04171688464256E-09  -1.04987886431112E-09
      2.16769703337069E-29
      3.12666666666667E-01
      3.90833333333333E+00   3.90833333333333E+00   0.00000000000000E+00   0.00000000000000E+00   9.85893184879665E-10
      9.69718607214174E-11   1.08286504560108E-09   2.41930472474408E-30   0.00000000000000E+00   0.00000000000000E+00
      0.00000000000000E+00   0.00000000000000E+00  -8.29046125524178E-12  -1.07457458436049E-09  -1.08286504561573E-09
      1.36448786475566E-29
      3.22666666666667E-01
      4.03333333333333E+00   4.03333333333333E+00   0.00000000000000E+00   0.00000000000000E+00   1.01625911315479E-09
      9.95777256649421E-11   1.11583683881973E-09   1.31610177026078E-29   0.00000000000000E+00   0.00000000000000E+00
      0.00000000000000E+00   0.00000000000000E+00  -8.42168877089095E-12  -1.10741514991344E-09  -1.11583683868433E-09
     -5.80633133938579E-30
      3.32666666666667E-01
      4.15833333333333E+00   4.15833333333333E+00   0.00000000000000E+00   0.00000000000000E+00   1.04660932596612E-09
      1.02193754636336E-10   1.14880308060246E-09  -1.24836123796794E-29   0.00000000000000E+00   0.00000000000000E+00
      0.00000000000000E+00   0.00000000000000E+00  -8.55601031561047E-12  -1.14024707003741E-09  -1.14880308035302E-09
      2.74833016730927E-29
      3.42666666666667E-01
      4.28333333333334E+00   4.28333333333334E+00   0.00000000000000E+00   0.00000000000000E+00   1.07694807901267E-09
      1.04824265244204E-10   1.18177234425688E-09   8.70949700907868E-31   0.00000000000000E+00   0.00000000000000E+00
      0.00000000000000E+00   0.00000000000000E+00  -8.69378682895081E-12  -1.17307855740819E-09  -1.18177234423714E-09
      1.99350709318912E-29
      3.52666666666667E-01
      4.40833333333334E+00   4.40833333333334E+00   0.00000000000000E+00   0.00000000000000E+00   1.10727903185830E-09
      1.07473881847036E-10   1.21475291370533E-09   1.70319052621983E-29   0.00000000000000E+00   0.00000000000000E+00
      0.00000000000000E+00   0.00000000000000E+00  -8.83539222633314E-12  -1.20591752144101E-09  -1.21475291366735E-09
      1.06449407888739E-29
      3.62666666666667E-01
      4.53333333333334E+00   4.53333333333334E+00   0.00000000000000E+00   0.00000000000000E+00   1.13760519003956E-09
      1.10147594334095E-10   1.24775278437365E-09   1.17094348677613E-29   0.00000000000000E+00   0.00000000000000E+00
      0.00000000000000E+00   0.00000000000000E+00  -8.98121358482401E-12  -1.23877157073254E-09  -1.24775278431737E-09
      2.22576034676455E-29
      3.72666666666667E-01
      4.65833333333334E+00   4.65833333333334E+00   0.00000000000000E+00   0.00000000000000E+00   1.16792891328903E-09
      1.12850825762605E-10   1.28077973905164E-09  -1.73222218291676E-29   0.00000000000000E+00   0.00000000000000E+00
      0.00000000000000E+00   0.00000000000000E+00  -9.13165161834655E-12  -1.27164808738678E-09  -1.28077973900513E-09
      2.32253253575432E-30
      3.82666666666667E-01
      4.78333333333334E+00   4.78333333333334E+00   0.00000000000000E+00   0.00000000000000E+00   1.19825197882403E-09
      1.15589496012211E-10   1.31384147483624E-09   8.99981357604797E-30   0.00000000000000E+00   0.00000000000000E+00
      0.00000000000000E+00   0.00000000000000E+00  -9.28712143642101E-12  -1.30455435338323E-09  -1.31384147481965E-09
      5.80633133938579E-30
      3.92666666666667E-01
      4.90833333333334E+00   4.90833333333334E+00   0.00000000000000E+00   0.00000000000000E+00   1.22857562311675E-09
      1.18370092313143E-10   1.34694571542989E-09  -1.38384230255361E-29   0.00000000000000E+00   0.00000000000000E+00
      0.00000000000000E+00   0.00000000000000E+00  -9.44805333785716E-12  -1.33749766220607E-09  -1.34694571554393E-09
      8.32240825311963E-30
      4.02666666666667E-01
      5.03333333333334E+00   5.03333333333334E+00   0.00000000000000E+00   0.00000000000000E+00   1.25890050261293E-09
      1.21199750311770E-10   1.38010025292470E-09   2.03221596878503E-29   0.00000000000000E+00   0.00000000000000E+00
      0.00000000000000E+00   0.00000000000000E+00  -9.61489336385590E-12  -1.37048535957716E-09  -1.38010025294102E-09
     -9.29013014301726E-30
      4.12666666666667E-01
      5.15833333333334E+00   5.15833333333334E+00   0.00000000000000E+00   0.00000000000000E+00   1.28922656486663E-09
      1.24086350900725E-10   1.41331291576735E-09  -4.83860944948816E-31   0.00000000000000E+00   0.00000000000000E+00
      0.00000000000000E+00   0.00000000000000E+00  -9.78810353534288E-12  -1.40352481206911E-09  -1.41331291560445E-09
     -6.96759760726295E-30
      4.22666666666667E-01
      5.28333333333334E+00   5.28333333333334E+00   0.00000000000000E+00   0.00000000000000E+00   1.31955288149786E-09
      1.27038637473025E-10   1.44659151897089E-09  -2.27414644125943E-29   0.00000000000000E+00   0.00000000000000E+00
      0.00000000000000E+00   0.00000000000000E+00  -9.96816197350870E-12  -1.43662335702301E-09  -1.44659151899652E-09
     -6.58050885130389E-30
      4.32666666666667E-01
      5.40833333333334E+00   5.40833333333334E+00   0.00000000000000E+00   0.00000000000000E+00   1.34987751101301E-09
      1.30066347727323E-10   1.47994385874034E-09  -1.27739289466487E-29   0.00000000000000E+00   0.00000000000000E+00
      0.00000000000000E+00   0.00000000000000E+00  -1.01555632152123E-11  -1.46978829558174E-09  -1.47994385879695E-09
     -1.29674733246283E-29
      4.42666666666667E-01
      5.53333333333334E+00   5.53333333333334E+00   0.00000000000000E+00   0.00000000000000E+00   1.38019741812286E-09
      1.33180349857809E-10   1.51337776798067E-09   4.45152069352910E-30   0.00000000000000E+00   0.00000000000000E+00
      0.00000000000000E+00   0.00000000000000E+00  -1.03508188901314E-11  -1.50302694907150E-09  -1.51337776796163E-09
      1.93544377979526E-31
      4.52666666666667E-01
      5.65833333333334E+00   5.65833333333334E+00   0.00000000000000E+00   0.00000000000000E+00   1.41050841749602E-09
      1.36392786074056E-10   1.54690120357008E-09  -7.74177511918105E-31   0.00000000000000E+00   0.00000000000000E+00
      0.00000000000000E+00   0.00000000000000E+00  -1.05544586450278E-11  -1.53634674523372E-09  -1.54690120387875E-09
      2.90316566969289E-30
      4.62666666666667E-01
      5.78333333333334E+00   5.78333333333334E+00   0.00000000000000E+00   0.00000000000000E+00   1.44080508068992E-09
      1.39717230690359E-10   1.58052231138028E-09   1.13223461118023E-29   0.00000000000000E+00   0.00000000000000E+00
      0.00000000000000E+00   0.00000000000000E+00  -1.07670310221261E-11  -1.56975528042684E-09  -1.58052231144896E-09
     -6.19342009534484E-30
      4.72666666666667E-01
      5.90833333333334E+00   5.90833333333334E+00   0.00000000000000E+00   0.00000000000000E+00   1.47108562514548E-09
      1.43169240437517E-10   1.61425486558300E-09  -3.76443815170179E-29   0.00000000000000E+00   0.00000000000000E+00
      0.00000000000000E+00   0.00000000000000E+00  -1.09890863685945E-11  -1.60326577932120E-09  -1.61425486568980E-09
     -2.43865916254203E-29
      4.82666666666667E-01
      6.03333333333334E+00   6.03333333333334E+00   0.00000000000000E+00   0.00000000000000E+00   1.50133495122293E-09
      1.46765318014868E-10   1.64810026923780E-09  -9.38690233200702E-30   0.00000000000000E+00   0.00000000000000E+00
      0.00000000000000E+00   0.00000000000000E+00  -1.12212353577567E-11  -1.63687903405466E-09  -1.64810026941241E-09
     -8.32240825311963E-30
      4.92666666666667E-01
      6.15833333333334E+00   6.15833333333334E+00   0.00000000000000E+00   0.00000000000000E+00   1.53151694480628E-09
      1.50522565600050E-10   1.68203951040633E-09   6.96759760726295E-30   0.00000000000000E+00   0.00000000000000E+00
      0.00000000000000E+00   0.00000000000000E+00  -1.14641789138478E-11  -1.67057533184748E-09  -1.68203951076133E-09
     -9.48367452099679E-30
      5.02666666666667E-01
      6.28333333333334E+00   6.28333333333334E+00   0.00000000000000E+00   0.00000000000000E+00   1.56160916100380E-09
      1.54461485206392E-10   1.71607064621019E-09  -1.74189940181574E-30   0.00000000000000E+00   0.00000000000000E+00
      0.00000000000000E+00   0.00000000000000E+00  -1.17185861690980E-11  -1.70435206033969E-09  -1.71607064650879E-09
     -7.54823074120153E-30
      5.12666666666667E-01
      6.40833333333334E+00   6.40833333333334E+00   0.00000000000000E+00   0.00000000000000E+00   1.59161506073582E-09
      1.58607164612141E-10   1.75022222534797E-09   2.70962129171337E-30   0.00000000000000E+00   0.00000000000000E+00
      0.00000000000000E+00   0.00000000000000E+00  -1.19850455159225E-11  -1.73823718016378E-09  -1.75022222567971E-09
     -2.22576034676455E-29
      5.22666666666667E-01
      6.53333333333334E+00   6.53333333333334E+00   0.00000000000000E+00   0.00000000000000E+00   1.62153245045328E-09
      1.62987500230785E-10   1.78451995068406E-09  -3.00961507758163E-29   0.00000000000000E+00   0.00000000000000E+00
      0.00000000000000E+00   0.00000000000000E+00  -1.22641753574031E-11  -1.77225577526365E-09  -1.78451995062105E-09
      2.03221596878503E-29
      5.32666666666667E-01
      6.65833333333334E+00   6.65833333333334E+00   0.00000000000000E+00   0.00000000000000E+00   1.65133320819355E-09
      1.67630416630410E-10   1.81896362482396E-09   2.90316566969289E-31   0.00000000000000E+00   0.00000000000000E+00
      0.00000000000000E+00   0.00000000000000E+00  -1.25567062800023E-11  -1.80640691854272E-09  -1.81896362482273E-09
      3.34831773904580E-29
      5.42666666666667E-01
      6.78333333333334E+00   6.78333333333334E+00   0.00000000000000E+00   0.00000000000000E+00   1.68099404460162E-09
      1.72568322549212E-10   1.85356236715084E-09  -6.87082541827318E-30   0.00000000000000E+00   0.00000000000000E+00
      0.00000000000000E+00   0.00000000000000E+00  -1.28633637223506E-11  -1.84069900333652E-09  -1.85356236705887E-09
     -8.32240825311963E-30
      5.52666666666667E-01
      6.90833333333334E+00   6.90833333333334E+00   0.00000000000000E+00   0.00000000000000E+00   1.71048937179715E-09
      1.77836327678083E-10   1.88832569947524E-09  -1.49996892934133E-29   0.00000000000000E+00   0.00000000000000E+00
      0.00000000000000E+00   0.00000000000000E+00  -1.31848978650242E-11  -1.87514080164718E-09  -1.88832569951220E-09
     -1.70319052621983E-29
      5.62666666666667E-01
      7.03333333333334E+00   7.03333333333334E+00   0.00000000000000E+00   0.00000000000000E+00   1.73979103516239E-09
      1.83472534076296E-10   1.92326356923868E-09  -2.27414644125943E-29   0.00000000000000E+00   0.00000000000000E+00
      0.00000000000000E+00   0.00000000000000E+00  -1.35220840782899E-11  -1.90974148520906E-09  -1.92326356928735E-09
     -5.80633133938579E-31
      5.72666666666667E-01
      7.15833333333334E+00   7.15833333333334E+00   0.00000000000000E+00   0.00000000000000E+00   1.76886840503809E-09
      1.89517933310483E-10   1.95838633834858E-09   4.01604584307517E-29   0.00000000000000E+00   0.00000000000000E+00
      0.00000000000000E+00   0.00000000000000E+00  -1.38757229514088E-11  -1.94451061555668E-09  -1.95838633850809E-09
     -5.03215382746768E-29
      5.82666666666667E-01
      7.28333333333334E+00   7.28333333333334E+00   0.00000000000000E+00   0.00000000000000E+00   1.79768861721143E-09
      1.96016168709408E-10   1.99370478592084E-09   2.07092484438093E-29   0.00000000000000E+00   0.00000000000000E+00
      0.00000000000000E+00   0.00000000000000E+00  -1.42466402424475E-11  -1.97945814571735E-09  -1.99370478595980E-09
     -1.74189940181574E-30
      5.92666666666667E-01
      7.40833333333334E+00   7.40833333333334E+00   0.00000000000000E+00   0.00000000000000E+00   1.82621701562479E-09
      2.03013111794309E-10   2.02923012741910E-09  -9.96753546594560E-30   0.00000000000000E+00   0.00000000000000E+00
      0.00000000000000E+00   0.00000000000000E+00  -1.46356868309567E-11  -2.01459444070668E-09  -2.02923012753764E-09
      4.10314081316596E-29
      6.02666666666667E-01
      7.53333333333334E+00   7.53333333333334E+00   0.00000000000000E+00   0.00000000000000E+00   1.85441780098112E-09
      2.10556237930438E-10   2.06497403891156E-09  -5.70955915039602E-30   0.00000000000000E+00   0.00000000000000E+00
      0.00000000000000E+00   0.00000000000000E+00  -1.50437385091076E-11  -2.04993030054664E-09  -2.06497403905575E-09
     -5.98052127956736E-29
      6.12666666666667E-01
      7.65833333333334E+00   7.65833333333334E+00   0.00000000000000E+00   0.00000000000000E+00   1.88225470059924E-09
      2.18693953085461E-10   2.10094865368470E-09   8.41918044210939E-30   0.00000000000000E+00   0.00000000000000E+00
      0.00000000000000E+00   0.00000000000000E+00  -1.54716952499525E-11  -2.08547695852628E-09  -2.10094865377623E-09
     -5.55472364801240E-29
      6.22666666666667E-01
      7.78333333333334E+00   7.78333333333334E+00   0.00000000000000E+00   0.00000000000000E+00   1.90969231066053E-09
      2.27474099984275E-10   2.13716641064480E-09  -4.25797631554958E-30   0.00000000000000E+00   0.00000000000000E+00
      0.00000000000000E+00   0.00000000000000E+00  -1.59204782829391E-11  -2.12124593237484E-09  -2.13716641065778E-09
     -1.16126626787716E-30
      6.32666666666667E-01
      7.90833333333334E+00   7.90833333333334E+00   0.00000000000000E+00   0.00000000000000E+00   1.93669653033132E-09
      2.36943486020800E-10   2.17364001635212E-09   1.25803845686692E-29   0.00000000000000E+00   0.00000000000000E+00
      0.00000000000000E+00   0.00000000000000E+00  -1.63910278132068E-11  -2.15724898866982E-09  -2.17364001648303E-09
      8.12886387514010E-30
      6.42666666666667E-01
      8.03333333333334E+00   8.03333333333334E+00   0.00000000000000E+00   0.00000000000000E+00   1.96323499020468E-09
      2.47147366354666E-10   2.21038235655935E-09   1.82899437190652E-29   0.00000000000000E+00   0.00000000000000E+00
      0.00000000000000E+00   0.00000000000000E+00  -1.68842994713272E-11  -2.19349805709253E-09  -2.21038235656386E-09
      2.51607691373384E-29
      6.52666666666667E-01
      8.15833333333334E+00   8.15833333333334E+00   0.00000000000000E+00   0.00000000000000E+00   1.98927930830077E-09
      2.58126876144897E-10   2.24740618444567E-09   1.07417129778637E-29   0.00000000000000E+00   0.00000000000000E+00
      0.00000000000000E+00   0.00000000000000E+00  -1.74012569040131E-11  -2.23000492755629E-09  -2.24740618446031E-09
      3.63863430601509E-29
      6.62666666666667E-01
      8.28333333333334E+00   8.28333333333334E+00   0.00000000000000E+00   0.00000000000000E+00   2.01480461518351E-09
      2.69919600152211E-10   2.28472421533572E-09   3.96765974858029E-30   0.00000000000000E+00   0.00000000000000E+00
      0.00000000000000E+00   0.00000000000000E+00  -1.79428686479033E-11  -2.26678134668775E-09  -2.28472421533566E-09
      3.09671004767242E-30
      6.72666666666667E-01
      8.40833333333334E+00   8.40833333333334E+00   0.00000000000000E+00   0.00000000000000E+00   2.03979108398765E-09
      2.82557864995425E-10   2.32234894898307E-09  -1.58706389943212E-29   0.00000000000000E+00   0.00000000000000E+00
      0.00000000000000E+00   0.00000000000000E+00  -1.85101005999844E-11  -2.30383884836167E-09  -2.32234894896166E-09
      4.45152069352910E-29
      6.82666666666667E-01