DF-ISE text

Info {
  version   = 1.0
  type      = xyplot
  datasets  = [
    "time"
    "ntype OuterVoltage" "ntype InnerVoltage" "ntype QuasiFermiPotential" "ntype DisplacementCurrent" "ntype eCurrent"
    "ntype hCurrent" "ntype TotalCurrent" "ntype Charge" "ptype OuterVoltage" "ptype InnerVoltage"
    "ptype QuasiFermiPotential" "ptype DisplacementCurrent" "ptype eCurrent" "ptype hCurrent" "ptype TotalCurrent"
    "ptype Charge" ]
  functions = [
    Time
    OuterVoltage InnerVoltage QuasiFermiPotential DisplacementCurrent eCurrent
    hCurrent TotalCurrent Charge OuterVoltage InnerVoltage
    QuasiFermiPotential DisplacementCurrent eCurrent hCurrent TotalCurrent
    Charge ]
}

Data {
      0.00000000000000E+00
      0.00000000000000E+00   0.00000000000000E+00   0.00000000000000E+00   0.00000000000000E+00  -1.43518077882485E-24
      1.43518078830440E-24   9.47955417334439E-33  -1.23384540961948E-30   0.00000000000000E+00   0.00000000000000E+00
      0.00000000000000E+00   0.00000000000000E+00   4.23194733475567E-29  -3.40495035647666E-24  -3.40490803700331E-24
      8.22563606412987E-31
      0.00000000000000E+00
      0.00000000000000E+00   0.00000000000000E+00   0.00000000000000E+00   0.00000000000000E+00  -2.62577285165353E-21
     -3.08458487618066E-22  -2.93423133927160E-21   2.51607691373384E-30   0.00000000000000E+00   0.00000000000000E+00
      0.00000000000000E+00   0.00000000000000E+00  -8.27736600305400E-24  -3.45463643059132E-24  -1.17320024336453E-23
      6.77405322928342E-31
      0.00000000000000E+00
      0.00000000000000E+00   0.00000000000000E+00   0.00000000000000E+00   0.00000000000000E+00  -1.00692093495358E-24
      2.23146517382858E-19   2.23145510461923E-19   2.70962129171337E-30   0.00000000000000E+00   0.00000000000000E+00
      0.00000000000000E+00   0.00000000000000E+00   3.03469356450306E-28  -7.78024960251520E-27  -7.47678024606490E-27
      2.84268305157429E-31
      5.00000000000000E-03
      7.50000000000000E-02   7.50000000000000E-02   0.00000000000000E+00   0.00000000000000E+00   7.66193753563511E-14
      1.47816327059364E-12   1.55478264594999E-12   3.06042047680126E-30   0.00000000000000E+00   0.00000000000000E+00
      0.00000000000000E+00   0.00000000000000E+00  -1.22246697613979E-13  -1.43253307217477E-12  -1.55477976978875E-12
      9.67721889897631E-32
      1.26666666666667E-02
      1.90000000000000E-01   1.90000000000000E-01   0.00000000000000E+00   0.00000000000000E+00   8.32513702200124E-13
      1.90690123266095E-11   1.99015260288097E-11   6.53212275680901E-31   0.00000000000000E+00   0.00000000000000E+00
      0.00000000000000E+00   0.00000000000000E+00  -1.27437297901456E-12  -1.86271537575563E-11  -1.99015267365708E-11
      9.37480580838330E-32
      2.26666666666667E-02
      3.40000000000000E-01   3.40000000000000E-01   0.00000000000000E+00   0.00000000000000E+00   1.99477377413612E-12
      7.03740469138872E-11   7.23688206880233E-11  -6.04826181186020E-32   0.00000000000000E+00   0.00000000000000E+00
      0.00000000000000E+00   0.00000000000000E+00  -2.99882532119966E-12  -6.93699944624424E-11  -7.23688197836420E-11
      1.49996892934133E-30
      3.26666666666667E-02
      4.90000000000000E-01   4.90000000000000E-01   0.00000000000000E+00   0.00000000000000E+00   2.62026029264209E-12
      1.23549462253012E-10   1.26169722545654E-10  -3.66524665798728E-30   0.00000000000000E+00   0.00000000000000E+00
      0.00000000000000E+00   0.00000000000000E+00  -3.90490449447706E-12  -1.22264817743179E-10  -1.26169722237656E-10
      9.79818413521352E-31
      4.26666666666667E-02
      6.40000000000000E-01   6.40000000000000E-01   0.00000000000000E+00   0.00000000000000E+00   3.01413198757823E-12
      1.75315018016698E-10   1.78329150004276E-10   1.87496116167666E-30   0.00000000000000E+00   0.00000000000000E+00
      0.00000000000000E+00   0.00000000000000E+00  -4.47028369042635E-12  -1.73858863641678E-10  -1.78329147332105E-10
     -1.79028549631062E-30
      5.26666666666667E-02
      7.90000000000000E-01   7.90000000000000E-01   0.00000000000000E+00   0.00000000000000E+00   3.29558697542714E-12
      2.25865833573289E-10   2.29161420548716E-10   1.33061759860924E-31   0.00000000000000E+00   0.00000000000000E+00
      0.00000000000000E+00   0.00000000000000E+00  -4.87357725644693E-12  -2.24287843465216E-10  -2.29161420721663E-10
     -2.22576034676455E-30
      6.26666666666667E-02
      9.40000000000000E-01   9.40000000000000E-01   0.00000000000000E+00   0.00000000000000E+00   3.51427952805530E-12
      2.75371482205040E-10   2.78885761733096E-10  -2.05640901603247E-31   0.00000000000000E+00   0.00000000000000E+00
      0.00000000000000E+00   0.00000000000000E+00  -5.18746690510102E-12  -2.73698295951539E-10  -2.78885762856640E-10
      7.57242378844897E-30
      7.26666666666667E-02
      1.09000000000000E+00   1.09000000000000E+00   0.00000000000000E+00   0.00000000000000E+00   3.69476419802265E-12
      3.23969956573978E-10   3.27664720772000E-10  -1.57254807108365E-31   0.00000000000000E+00   0.00000000000000E+00
      0.00000000000000E+00   0.00000000000000E+00  -5.44741897761559E-12  -3.22217302677099E-10  -3.27664721654715E-10
     -2.95155176418778E-30
      8.26666666666667E-02
      1.24000000000000E+00   1.24000000000000E+00   0.00000000000000E+00   0.00000000000000E+00   3.85061638203455E-12
      3.71777758482535E-10   3.75628374864569E-10   1.27013498049064E-30   0.00000000000000E+00   0.00000000000000E+00
      0.00000000000000E+00   0.00000000000000E+00  -5.67288098675929E-12  -3.69955497238816E-10  -3.75628378225575E-10
     -2.03221596878503E-30
      9.26666666666667E-02
      1.39000000000000E+00   1.39000000000000E+00   0.00000000000000E+00   0.00000000000000E+00   3.98997814825895E-12
      4.18895153332407E-10   4.22885131480666E-10   5.80633133938579E-31   0.00000000000000E+00   0.00000000000000E+00
      0.00000000000000E+00   0.00000000000000E+00  -5.87543850538814E-12  -4.17009691304917E-10  -4.22885129810305E-10
     -1.11288017338228E-30
      1.02666666666667E-01
      1.54000000000000E+00   1.54000000000000E+00   0.00000000000000E+00   0.00000000000000E+00   4.11805413765685E-12
      4.65409398317330E-10   4.69527452454987E-10   7.25791417423224E-31   0.00000000000000E+00   0.00000000000000E+00
      0.00000000000000E+00   0.00000000000000E+00  -6.06242319647204E-12  -4.63465030242129E-10  -4.69527453438601E-10
      3.87088755959053E-31
      1.12666666666667E-01
      1.69000000000000E+00   1.69000000000000E+00   0.00000000000000E+00   0.00000000000000E+00   4.23835160705748E-12
      5.11397088226376E-10   5.15635439833434E-10   2.14108468139851E-30   0.00000000000000E+00   0.00000000000000E+00
      0.00000000000000E+00   0.00000000000000E+00  -6.23867506142203E-12  -5.09396763053636E-10  -5.15635438115058E-10
      1.93544377979526E-30
      1.22666666666667E-01
      1.84000000000000E+00   1.84000000000000E+00   0.00000000000000E+00   0.00000000000000E+00   4.35334673701715E-12
      5.56925823435017E-10   5.61279170172035E-10   2.03221596878503E-30   0.00000000000000E+00   0.00000000000000E+00
      0.00000000000000E+00   0.00000000000000E+00  -6.40747708968197E-12  -5.54871697582992E-10  -5.61279174672674E-10
      5.03215382746768E-30
      1.32666666666667E-01
      1.99000000000000E+00   1.99000000000000E+00   0.00000000000000E+00   0.00000000000000E+00   4.46486834461229E-12
      6.02055621292102E-10   6.06520489636714E-10  -1.12497669700600E-30   0.00000000000000E+00   0.00000000000000E+00
      0.00000000000000E+00   0.00000000000000E+00  -6.57109180271714E-12  -5.99949400618930E-10  -6.06520492421648E-10
      1.43222839704849E-29
      1.42666666666667E-01
      2.14000000000000E+00   2.14000000000000E+00   0.00000000000000E+00   0.00000000000000E+00   4.57433510011739E-12
      6.46839958194587E-10   6.51414293294705E-10   2.62494562634733E-30   0.00000000000000E+00   0.00000000000000E+00
      0.00000000000000E+00   0.00000000000000E+00  -6.73109417750970E-12  -6.44683195076156E-10  -6.51414289253666E-10
      1.93544377979526E-31
      1.52666666666667E-01
      2.29000000000000E+00   2.29000000000000E+00   0.00000000000000E+00   0.00000000000000E+00   4.68291419326157E-12
      6.91326676986976E-10   6.96009591180237E-10   1.43948631122273E-30   0.00000000000000E+00   0.00000000000000E+00
      0.00000000000000E+00   0.00000000000000E+00  -6.88859296992280E-12  -6.89120998438003E-10  -6.96009591407926E-10
     -4.16120412655981E-30
      1.62666666666667E-01
      2.44000000000000E+00   2.44000000000000E+00   0.00000000000000E+00   0.00000000000000E+00   4.79163643259832E-12
      7.35558785982343E-10   7.40350422414942E-10   9.67721889897631E-31   0.00000000000000E+00   0.00000000000000E+00
      0.00000000000000E+00   0.00000000000000E+00  -7.04438563243420E-12  -7.33306037181924E-10  -7.40350422814358E-10
     -1.50964614824031E-29
      1.72666666666667E-01
      2.59000000000000E+00   2.59000000000000E+00   0.00000000000000E+00   0.00000000000000E+00   4.90148559252270E-12
      7.79575044262377E-10   7.84476529854899E-10   1.48787240571761E-30   0.00000000000000E+00   0.00000000000000E+00
      0.00000000000000E+00   0.00000000000000E+00  -7.19907017741687E-12  -7.77277462422851E-10  -7.84476532600268E-10
     -8.70949700907868E-31
      1.82666666666667E-01
      2.74000000000000E+00   2.74000000000000E+00   0.00000000000000E+00   0.00000000000000E+00   5.01347063390230E-12
      8.23410540587581E-10   8.28424011221484E-10  -6.65308799304622E-31   0.00000000000000E+00   0.00000000000000E+00
      0.00000000000000E+00   0.00000000000000E+00  -7.35312701456136E-12  -8.21070884125125E-10  -8.28424011139686E-10
      1.52900058603826E-29
      1.92666666666667E-01
      2.89000000000000E+00   2.89000000000000E+00   0.00000000000000E+00   0.00000000000000E+00   5.12868831222193E-12
      8.67097130254459E-10   8.72225818566681E-10  -1.31852107498552E-30   0.00000000000000E+00   0.00000000000000E+00
      0.00000000000000E+00   0.00000000000000E+00  -7.50679712924736E-12  -8.64719023341788E-10  -8.72225820471036E-10
      2.32253253575432E-30
      2.02666666666667E-01
      3.04000000000000E+00   3.04000000000000E+00   0.00000000000000E+00   0.00000000000000E+00   5.24831824127576E-12
      9.10663838270409E-10   9.15912156511684E-10   1.63303068920225E-30   0.00000000000000E+00   0.00000000000000E+00
      0.00000000000000E+00   0.00000000000000E+00  -7.66267501119993E-12  -9.08249479452124E-10  -9.15912154463324E-10
      2.90316566969289E-31
      2.12666666666667E-01
      3.19000000000000E+00   3.19000000000000E+00   0.00000000000000E+00   0.00000000000000E+00   5.37373131479244E-12
      9.54137207250070E-10   9.59510938564863E-10  -2.41930472474408E-32   0.00000000000000E+00   0.00000000000000E+00
      0.00000000000000E+00   0.00000000000000E+00  -7.82193289963662E-12  -9.51689003866444E-10  -9.59510936766080E-10
     -3.66766596271202E-29
      2.22666666666667E-01
      3.34000000000000E+00   3.34000000000000E+00   0.00000000000000E+00   0.00000000000000E+00   5.50653613339905E-12
      9.97541640076948E-10   1.00304817621035E-09  -7.62080988294385E-31   0.00000000000000E+00   0.00000000000000E+00
      0.00000000000000E+00   0.00000000000000E+00  -7.98379544254558E-12  -9.95064379133848E-10  -1.00304817457639E-09
     -3.00961507758163E-29
      2.32666666666667E-01
      3.49000000000000E+00   3.49000000000000E+00   0.00000000000000E+00   0.00000000000000E+00   5.64852182705156E-12
      1.04089958412598E-09   1.04654810595303E-09  -9.67721889897631E-31   0.00000000000000E+00   0.00000000000000E+00
      0.00000000000000E+00   0.00000000000000E+00  -8.14915023049288E-12  -1.03839895535101E-09  -1.04654810558150E-09
     -6.19342009534484E-30
      2.42666666666667E-01
      3.64000000000000E+00   3.64000000000000E+00   0.00000000000000E+00   0.00000000000000E+00   5.80170692589284E-12
      1.08423178493163E-09   1.09003349185752E-09  -1.89915420892410E-30   0.00000000000000E+00   0.00000000000000E+00
      0.00000000000000E+00   0.00000000000000E+00  -8.31874258898260E-12  -1.08171474726323E-09  -1.09003348985221E-09
      4.83860944948816E-30
      2.52666666666667E-01
      3.79000000000000E+00   3.79000000000000E+00   0.00000000000000E+00   0.00000000000000E+00   5.96834195360890E-12
      1.12755745450001E-09   1.13352579645362E-09  -6.04826181186020E-31   0.00000000000000E+00   0.00000000000000E+00
      0.00000000000000E+00   0.00000000000000E+00  -8.49335484529545E-12  -1.12503244452627E-09  -1.13352579937157E-09
      9.48367452099679E-30
      2.62666666666667E-01
      3.94000000000000E+00   3.94000000000000E+00   0.00000000000000E+00   0.00000000000000E+00   6.15091156040139E-12
      1.17089447545246E-09   1.17704538701286E-09  -3.02413090593010E-31   0.00000000000000E+00   0.00000000000000E+00
      0.00000000000000E+00   0.00000000000000E+00  -8.67380906145129E-12  -1.16837157552361E-09  -1.17704538458506E-09
      1.35481064585668E-30
      2.72666666666667E-01
      4.09000000000000E+00   4.09000000000000E+00   0.00000000000000E+00   0.00000000000000E+00   6.35213392130724E-12
      1.21425948486175E-09   1.22061161878306E-09   5.56440086691138E-31   0.00000000000000E+00   0.00000000000000E+00
      0.00000000000000E+00   0.00000000000000E+00  -8.86096900251000E-12  -1.21175064830727E-09  -1.22061161730978E-09
      4.06443193757005E-30
      2.82666666666667E-01
      4.24000000000000E+00   4.24000000000000E+00   0.00000000000000E+00   0.00000000000000E+00   6.57495863066381E-12
      1.25766805976662E-09   1.26424301839728E-09   1.35481064585668E-30   0.00000000000000E+00   0.00000000000000E+00
      0.00000000000000E+00   0.00000000000000E+00  -9.05574167008998E-12  -1.25518727297698E-09  -1.26424301464707E-09
     -1.35481064585668E-29
      2.92666666666667E-01
      4.39000000000000E+00   4.39000000000000E+00   0.00000000000000E+00   0.00000000000000E+00   6.82256412389220E-12
      1.30113478169697E-09   1.30795734582086E-09  -1.69351330732086E-30   0.00000000000000E+00   0.00000000000000E+00
      0.00000000000000E+00   0.00000000000000E+00  -9.25907860823373E-12  -1.29869826920267E-09  -1.30795734781090E-09
     -2.76768460510723E-29
      3.02666666666667E-01
      4.54000000000000E+00   4.54000000000000E+00   0.00000000000000E+00   0.00000000000000E+00   7.09835544568107E-12
      1.34467338225425E-09   1.35177173769993E-09  -5.56440086691138E-31   0.00000000000000E+00   0.00000000000000E+00
      0.00000000000000E+00   0.00000000000000E+00  -9.47197710170158E-12  -1.34229976199695E-09  -1.35177173909866E-09
     -2.12898815777479E-30
      3.12666666666667E-01
      4.69000000000000E+00   4.69000000000000E+00   0.00000000000000E+00   0.00000000000000E+00   7.40596297802937E-12
      1.38829678440421E-09   1.39570274738224E-09  -6.04826181186020E-32   0.00000000000000E+00   0.00000000000000E+00
      0.00000000000000E+00   0.00000000000000E+00  -9.69548132499175E-12  -1.38600726828639E-09  -1.39570274961138E-09
     -4.72248282270044E-29
      3.22666666666667E-01
      4.84000000000000E+00   4.84000000000000E+00   0.00000000000000E+00   0.00000000000000E+00   7.74924255559380E-12
      1.43201721667485E-09   1.43976645923044E-09  -1.39110021672785E-30   0.00000000000000E+00   0.00000000000000E+00
      0.00000000000000E+00   0.00000000000000E+00  -9.93068345637025E-12  -1.42983577633287E-09  -1.43976645978924E-09
      5.65149583700217E-29
      3.32666666666667E-01
      4.99000000000000E+00   4.99000000000000E+00   0.00000000000000E+00   0.00000000000000E+00   8.13227723762451E-12
      1.47584626617492E-09   1.48397854341255E-09   1.72980287819202E-30   0.00000000000000E+00   0.00000000000000E+00
      0.00000000000000E+00   0.00000000000000E+00  -1.01787247395810E-11  -1.47379981962990E-09  -1.48397854436948E-09
     -4.64506507150863E-30
      3.42666666666667E-01
      5.14000000000000E+00   5.14000000000000E+00   0.00000000000000E+00   0.00000000000000E+00   8.55938087933212E-12
      1.51979496301200E-09   1.52835434389133E-09   1.24594193324320E-30   0.00000000000000E+00   0.00000000000000E+00
      0.00000000000000E+00   0.00000000000000E+00  -1.04407964528451E-11  -1.51791354654728E-09  -1.52835434300013E-09
     -1.35481064585668E-29
      3.52666666666667E-01
      5.29000000000000E+00   5.29000000000000E+00   0.00000000000000E+00   0.00000000000000E+00   9.03510355091482E-12
      1.56387382619998E-09   1.57290892975090E-09   4.35474850453934E-31   0.00000000000000E+00   0.00000000000000E+00
      0.00000000000000E+00   0.00000000000000E+00  -1.07181407275361E-11  -1.56219078671860E-09  -1.57290892744613E-09
      3.52250767922738E-29
      3.62666666666667E-01
      5.44000000000000E+00   5.44000000000000E+00   0.00000000000000E+00   0.00000000000000E+00   9.56813220667796E-12
      1.60809549883818E-09   1.61766363104486E-09   1.43948631122273E-30   0.00000000000000E+00   0.00000000000000E+00
      0.00000000000000E+00   0.00000000000000E+00  -1.10120309053882E-11  -1.60665159960962E-09  -1.61766363051501E-09
     -1.10320295448330E-29
      3.72666666666667E-01
      5.59000000000000E+00   5.59000000000000E+00   0.00000000000000E+00   0.00000000000000E+00   1.01536941834424E-11
      1.65246318582257E-09   1.66261688000602E-09   0.00000000000000E+00   0.00000000000000E+00   0.00000000000000E+00
      0.00000000000000E+00   0.00000000000000E+00  -1.13238631925118E-11  -1.65129301387235E-09  -1.66261687706486E-09
     -3.32896330124785E-29
      3.82666666666667E-01
      5.74000000000000E+00   5.74000000000000E+00   0.00000000000000E+00   0.00000000000000E+00   1.07648086299371E-11
      1.69696489753937E-09   1.70772970616931E-09  -2.55236648460500E-30   0.00000000000000E+00   0.00000000000000E+00
      0.00000000000000E+00   0.00000000000000E+00  -1.16552096490243E-11  -1.69607449732666E-09  -1.70772970697568E-09
      2.18705147116865E-29
      3.92666666666667E-01
      5.89000000000000E+00   5.89000000000000E+00   0.00000000000000E+00   0.00000000000000E+00   1.14167773957349E-11
      1.74161611397494E-09   1.75303289137067E-09   1.86286463805294E-30   0.00000000000000E+00   0.00000000000000E+00
      0.00000000000000E+00   0.00000000000000E+00  -1.20074750326815E-11  -1.74102541187025E-09  -1.75303288690293E-09
      5.10957157865949E-29
      4.02666666666667E-01
      6.04000000000000E+00   6.04000000000000E+00   0.00000000000000E+00   0.00000000000000E+00   1.21364763777593E-11
      1.78643947585492E-09   1.79857595223268E-09  -9.19335795402750E-31   0.00000000000000E+00   0.00000000000000E+00
      0.00000000000000E+00   0.00000000000000E+00  -1.23820476409175E-11  -1.78619390461127E-09  -1.79857595225219E-09
      8.70949700907868E-30
      4.12666666666667E-01
      6.19000000000000E+00   6.19000000000000E+00   0.00000000000000E+00   0.00000000000000E+00   1.29218798293915E-11
      1.83143816849120E-09   1.84436004832060E-09  -3.74992232335332E-31   0.00000000000000E+00   0.00000000000000E+00
      0.00000000000000E+00   0.00000000000000E+00  -1.27805206280110E-11  -1.83157952458283E-09  -1.84436004521084E-09
     -3.67734318161100E-30
      4.22666666666667E-01
      6.34000000000000E+00   6.34000000000000E+00   0.00000000000000E+00   0.00000000000000E+00   1.37779844236450E-11
      1.87661959716673E-09   1.89039758159037E-09  -4.59667897701375E-31   0.00000000000000E+00   0.00000000000000E+00
      0.00000000000000E+00   0.00000000000000E+00  -1.32044964335414E-11  -1.87719308911274E-09  -1.89039758554629E-09
     -1.62577277502802E-29
      4.32666666666667E-01
      6.49000000000000E+00   6.49000000000000E+00   0.00000000000000E+00   0.00000000000000E+00   1.47100868358017E-11
      1.92199105113574E-09   1.93670113797154E-09   2.23785687038827E-30   0.00000000000000E+00   0.00000000000000E+00
      0.00000000000000E+00   0.00000000000000E+00  -1.36556192612098E-11  -1.92304551715005E-09  -1.93670113641126E-09
      8.12886387514010E-30
      4.42666666666667E-01
      6.64000000000000E+00   6.64000000000000E+00   0.00000000000000E+00   0.00000000000000E+00   1.57237999926324E-11
      1.96755965557913E-09   1.98328345557176E-09  -1.83867159080550E-30   0.00000000000000E+00   0.00000000000000E+00
      0.00000000000000E+00   0.00000000000000E+00  -1.41355702911466E-11  -1.96914788505190E-09  -1.98328345534305E-09
     -1.68383608842188E-29
      4.52666666666667E-01
      6.79000000000000E+00   6.79000000000000E+00   0.00000000000000E+00   0.00000000000000E+00   1.68250694736111E-11
      2.01333247309618E-09   2.03015754256979E-09   3.50799185087891E-31   0.00000000000000E+00   0.00000000000000E+00
      0.00000000000000E+00   0.00000000000000E+00  -1.46460617222163E-11  -2.01551148158600E-09  -2.03015754330822E-09
     -4.93538163847792E-29
      4.62666666666667E-01
      6.94000000000000E+00   6.94000000000000E+00   0.00000000000000E+00   0.00000000000000E+00   1.80201900984067E-11
      2.05931650124081E-09   2.07733669133921E-09   4.95957468572536E-31   0.00000000000000E+00   0.00000000000000E+00
      0.00000000000000E+00   0.00000000000000E+00  -1.51888295322708E-11  -2.06214786250429E-09  -2.07733669203656E-09
      3.85153312179257E-29
      4.72666666666667E-01
      7.09000000000000E+00   7.09000000000000E+00   0.00000000000000E+00   0.00000000000000E+00   1.93158227486967E-11
      2.10551870393682E-09   2.12483452668552E-09   4.11281803206493E-31   0.00000000000000E+00   0.00000000000000E+00
      0.00000000000000E+00   0.00000000000000E+00  -1.57656248515489E-11  -2.10906890503498E-09  -2.12483452988653E-09
      4.06443193757005E-30
      4.82666666666667E-01
      7.24000000000000E+00   7.24000000000000E+00   0.00000000000000E+00   0.00000000000000E+00   2.07190114868387E-11
      2.15194605409704E-09   2.17266506558387E-09  -2.29833948850687E-31   0.00000000000000E+00   0.00000000000000E+00
      0.00000000000000E+00   0.00000000000000E+00  -1.63782038557790E-11  -2.15628686263176E-09  -2.17266506648754E-09
     -9.48367452099679E-30
      4.92666666666667E-01
      7.39000000000001E+00   7.39000000000001E+00   0.00000000000000E+00   0.00000000000000E+00   2.22372010509139E-11
      2.19860553613955E-09   2.22084273719046E-09   7.25791417423224E-31   0.00000000000000E+00   0.00000000000000E+00
      0.00000000000000E+00   0.00000000000000E+00  -1.70283161015804E-11  -2.20381442031288E-09  -2.22084273641446E-09
      4.76119169829635E-29
      5.02666666666667E-01
      7.54000000000000E+00   7.54000000000000E+00   0.00000000000000E+00   0.00000000000000E+00   2.38782548264938E-11
      2.24550418176641E-09   2.26938243659290E-09   8.34660130036707E-31   0.00000000000000E+00   0.00000000000000E+00
      0.00000000000000E+00   0.00000000000000E+00  -1.77176912481024E-11  -2.25166475091941E-09  -2.26938244216751E-09
      1.70319052621983E-29
      5.12666666666667E-01
      7.69000000000000E+00   7.69000000000000E+00   0.00000000000000E+00   0.00000000000000E+00   2.56504734213134E-11
      2.29264912074119E-09   2.31829959416250E-09  -1.75399592543946E-30   0.00000000000000E+00   0.00000000000000E+00
      0.00000000000000E+00   0.00000000000000E+00  -1.84480241361475E-11  -2.29985157262311E-09  -2.31829959675926E-09
      7.08372423405066E-29
      5.22666666666667E-01
      7.84000000000000E+00   7.84000000000000E+00   0.00000000000000E+00   0.00000000000000E+00   2.75626140012061E-11
      2.34004754689176E-09   2.36761016089297E-09   6.77405322928342E-31   0.00000000000000E+00   0.00000000000000E+00
      0.00000000000000E+00   0.00000000000000E+00  -1.92209582299085E-11  -2.34838920802033E-09  -2.36761016625024E-09
      3.63863430601509E-29
      5.32666666666667E-01
      7.99000000000000E+00   7.99000000000000E+00   0.00000000000000E+00   0.00000000000000E+00   2.96239105851179E-11
      2.38770679814812E-09   2.41733070873324E-09  -2.51607691373384E-30   0.00000000000000E+00   0.00000000000000E+00
      0.00000000000000E+00   0.00000000000000E+00  -2.00380674674152E-11  -2.39729264516078E-09  -2.41733071262819E-09
     -3.87088755959053E-31
      5.42666666666667E-01
      8.14000000000000E+00   8.14000000000000E+00   0.00000000000000E+00   0.00000000000000E+00   3.18440955446997E-11
      2.43563434242650E-09   2.46747843797120E-09   1.93544377979526E-31   0.00000000000000E+00   0.00000000000000E+00
      0.00000000000000E+00   0.00000000000000E+00  -2.09008366141935E-11  -2.44657760087999E-09  -2.46747843749418E-09
      4.64506507150863E-30
      5.52666666666667E-01
      8.29000000000000E+00   8.29000000000000E+00   0.00000000000000E+00   0.00000000000000E+00   3.42334226104677E-11
      2.48383780446453E-09   2.51807122707500E-09  -3.47170228000775E-30   0.00000000000000E+00   0.00000000000000E+00
      0.00000000000000E+00   0.00000000000000E+00  -2.18106402705590E-11  -2.49626058683114E-09  -2.51807122710170E-09
     -1.62577277502802E-29
      5.62666666666667E-01
      8.44000000000000E+00   8.44000000000000E+00   0.00000000000000E+00   0.00000000000000E+00   3.68028762919098E-11
      2.53232512620847E-09   2.56912800250038E-09  -1.08868712613484E-30   0.00000000000000E+00   0.00000000000000E+00
      0.00000000000000E+00   0.00000000000000E+00  -2.27687198061532E-11  -2.54635928299370E-09  -2.56912800279985E-09
      1.08384851668535E-29
      5.72666666666667E-01
      8.59000000000001E+00   8.59000000000001E+00   0.00000000000000E+00   0.00000000000000E+00   3.95752754961210E-11
      2.58111170689148E-09   2.62068698238760E-09   8.83046224531589E-31   0.00000000000000E+00   0.00000000000000E+00
      0.00000000000000E+00   0.00000000000000E+00  -2.37761042738994E-11  -2.59691087426680E-09  -2.62068697854070E-09
      2.90316566969289E-29
      5.82666666666667E-01
      8.74000000000001E+00   8.74000000000001E+00   0.00000000000000E+00   0.00000000000000E+00   4.25462480527144E-11
      2.63019526256559E-09   2.67274151061831E-09  -1.63303068920225E-30   0.00000000000000E+00   0.00000000000000E+00
      0.00000000000000E+00   0.00000000000000E+00  -2.48337853830104E-11  -2.64790772251120E-09  -2.67274150789421E-09
      1.01030165305313E-28
      5.92666666666667E-01
      8.89000000000001E+00   8.89000000000001E+00   0.00000000000000E+00   0.00000000000000E+00   4.56954467022574E-11
      2.67956311073473E-09   2.72525855743698E-09  -4.23378326830214E-31   0.00000000000000E+00   0.00000000000000E+00
      0.00000000000000E+00   0.00000000000000E+00  -2.59426338387591E-11  -2.69931592490969E-09  -2.72525855874845E-09
      8.39982600431144E-29
      6.02666666666667E-01
      9.04000000000000E+00   9.04000000000000E+00   0.00000000000000E+00   0.00000000000000E+00   4.90171774655159E-11
      2.72921189067466E-09   2.77822906814018E-09  -6.53212275680901E-31   0.00000000000000E+00   0.00000000000000E+00
      0.00000000000000E+00   0.00000000000000E+00  -2.71032205733505E-11  -2.75112584522343E-09  -2.77822906579678E-09
      4.45152069352910E-29
      6.12666666666667E-01
      9.19000000000000E+00   9.19000000000000E+00   0.00000000000000E+00   0.00000000000000E+00   5.25339420780201E-11
      2.77915621716164E-09   2.83169015923966E-09  -1.33061759860924E-30   0.00000000000000E+00   0.00000000000000E+00
      0.00000000000000E+00   0.00000000000000E+00  -2.83157295505959E-11  -2.80337442881871E-09  -2.83169015836930E-09
      1.85802602860345E-29
      6.22666666666667E-01
      9.34000000000001E+00   9.34000000000001E+00   0.00000000000000E+00   0.00000000000000E+00   5.62964112524750E-11
      2.82942866301009E-09   2.88572507426257E-09  -1.22174888599576E-30   0.00000000000000E+00   0.00000000000000E+00
      0.00000000000000E+00   0.00000000000000E+00  -2.95799411474653E-11  -2.85614512962163E-09  -2.88572507076910E-09
     -1.04513964108944E-29
      6.32666666666667E-01
      9.49000000000001E+00   9.49000000000001E+00   0.00000000000000E+00   0.00000000000000E+00   6.03195281497629E-11
      2.88003865204893E-09   2.94035818019869E-09   1.76609244906318E-30   0.00000000000000E+00   0.00000000000000E+00
      0.00000000000000E+00   0.00000000000000E+00  -3.08955286564454E-11  -2.90946265154009E-09  -2.94035818019653E-09
      3.09671004767242E-30
      6.42666666666667E-01
      9.64000000000001E+00   9.64000000000001E+00   0.00000000000000E+00   0.00000000000000E+00   6.46095779276252E-11
      2.93098992811878E-09   2.99559950604641E-09   8.22563606412987E-31   0.00000000000000E+00   0.00000000000000E+00
      0.00000000000000E+00   0.00000000000000E+00  -3.22619179261524E-11  -2.96333758668139E-09  -2.99559950460754E-09
      3.32896330124785E-29
      6.52666666666667E-01
      9.79000000000001E+00   9.79000000000001E+00   0.00000000000000E+00   0.00000000000000E+00   6.91820130872290E-11
      2.98229195848552E-09   3.05147397157274E-09  -2.11689163415107E-30   0.00000000000000E+00   0.00000000000000E+00
      0.00000000000000E+00   0.00000000000000E+00  -3.36781799831315E-11  -3.01779579188852E-09  -3.05147397187165E-09
      6.96759760726295E-30
      6.62666666666667E-01
      9.94000000000001E+00   9.94000000000001E+00   0.00000000000000E+00   0.00000000000000E+00   7.40531948799672E-11
      3.03395465513641E-09   3.10800785001637E-09   1.93544377979526E-31   0.00000000000000E+00   0.00000000000000E+00
      0.00000000000000E+00   0.00000000000000E+00  -3.51430628900147E-11  -3.07286478835808E-09  -3.10800785124810E-09
      4.60635619591273E-29
      6.72666666666667E-01
      1.00900000000000E+01   1.00900000000000E+01   0.00000000000000E+00   0.00000000000000E+00   7.92404751769919E-11
      3.08598840396878E-09   3.16522887914577E-09   3.10880657129614E-30   0.00000000000000E+00   0.00000000000000E+00
      0.00000000000000E+00   0.00000000000000E+00  -3.66549907728633E-11  -3.12857389282488E-09  -3.16522888359774E-09
      7.35468636322200E-30
      6.82666666666667E-01