DF-ISE text

Info {
  version   = 1.0
  type      = xyplot
  datasets  = [
    "time"
    "ntype OuterVoltage" "ntype InnerVoltage" "ntype QuasiFermiPotential" "ntype DisplacementCurrent" "ntype eCurrent"
    "ntype hCurrent" "ntype TotalCurrent" "ntype Charge" "ptype OuterVoltage" "ptype InnerVoltage"
    "ptype QuasiFermiPotential" "ptype DisplacementCurrent" "ptype eCurrent" "ptype hCurrent" "ptype TotalCurrent"
    "ptype Charge" ]
  functions = [
    Time
    OuterVoltage InnerVoltage QuasiFermiPotential DisplacementCurrent eCurrent
    hCurrent TotalCurrent Charge OuterVoltage InnerVoltage
    QuasiFermiPotential DisplacementCurrent eCurrent hCurrent TotalCurrent
    Charge ]
}

Data {
      0.00000000000000E+00
      0.00000000000000E+00   0.00000000000000E+00   0.00000000000000E+00   0.00000000000000E+00  -1.57805836517412E-24
      1.57805925399763E-24   8.88823505582238E-31  -6.54179997570799E-29   0.00000000000000E+00   0.00000000000000E+00
      0.00000000000000E+00   0.00000000000000E+00   7.43818010386691E-19  -6.52152358938216E-30   7.43818010380170E-19
     -1.69351330732086E-30
      0.00000000000000E+00
      0.00000000000000E+00   0.00000000000000E+00   0.00000000000000E+00   0.00000000000000E+00   6.69533737291766E-19
     -9.75279495385064E-23   6.69436209342228E-19  -2.14834259557274E-29   0.00000000000000E+00   0.00000000000000E+00
      0.00000000000000E+00   0.00000000000000E+00   5.81107824212058E-20  -3.60321840952913E-28   5.81107820608839E-20
      1.56045154745993E-30
      0.00000000000000E+00
      0.00000000000000E+00   0.00000000000000E+00   0.00000000000000E+00   0.00000000000000E+00  -3.34719190714562E-19
      1.08604411939942E-24  -3.34718104670443E-19  -2.59349466492565E-29   0.00000000000000E+00   0.00000000000000E+00
      0.00000000000000E+00   0.00000000000000E+00  -6.62462915455004E-20  -3.99022081440268E-30  -6.62462915494906E-20
     -2.43140124836780E-30
      2.50000000000000E-03
      7.50000000000000E-02   7.50000000000000E-02   0.00000000000000E+00   0.00000000000000E+00   3.55795051351151E-12
      4.53188859555876E-13   4.01113937306738E-12   2.96122898308675E-29   0.00000000000000E+00   0.00000000000000E+00
      0.00000000000000E+00   0.00000000000000E+00  -4.00959040552828E-12  -1.54807104440790E-15  -4.01113847657269E-12
     -3.12090309491986E-30
      5.33333333333333E-03
      1.60000000000000E-01   1.60000000000000E-01   0.00000000000000E+00   0.00000000000000E+00   3.96406525935268E-12
      5.04810366381860E-13   4.46887562573454E-12  -1.11094472960248E-28   0.00000000000000E+00   0.00000000000000E+00
      0.00000000000000E+00   0.00000000000000E+00  -4.46574948416321E-12  -3.12921804418152E-15  -4.46887870220739E-12
      1.81447854355806E-30
      1.06222222222222E-02
      3.18666666666667E-01   3.18666666666667E-01   0.00000000000000E+00   0.00000000000000E+00   4.28409293245601E-12
      5.45473355959482E-13   4.82956628841550E-12  -6.87082541827318E-29   0.00000000000000E+00   0.00000000000000E+00
      0.00000000000000E+00   0.00000000000000E+00  -4.82359335338593E-12  -5.97160691175086E-15  -4.82956496029768E-12
      1.28223150411436E-30
      2.04948148148148E-02
      6.14844444444444E-01   6.14844444444444E-01   0.00000000000000E+00   0.00000000000000E+00   4.72077031916408E-12
      6.00937201549073E-13   5.32170752071315E-12   5.02247660856871E-29   0.00000000000000E+00   0.00000000000000E+00
      0.00000000000000E+00   0.00000000000000E+00  -5.31048157618281E-12  -1.12253674482121E-14  -5.32170694363102E-12
     -5.32247039443697E-31
      3.04948148148148E-02
      9.14844444444444E-01   9.14844444444444E-01   0.00000000000000E+00   0.00000000000000E+00   5.06398977448479E-12
      6.44513277260382E-13   5.70850305174517E-12   1.04417191919954E-28   0.00000000000000E+00   0.00000000000000E+00
      0.00000000000000E+00   0.00000000000000E+00  -5.69199343639699E-12  -1.65094044900150E-14  -5.70850284088700E-12
     -5.70955915039602E-30
      4.04948148148148E-02
      1.21484444444444E+00   1.21484444444444E+00   0.00000000000000E+00   0.00000000000000E+00   5.35868238962056E-12
      6.81916020894891E-13   6.04059841051545E-12   3.06767839097549E-29   0.00000000000000E+00   0.00000000000000E+00
      0.00000000000000E+00   0.00000000000000E+00  -6.01845956192730E-12  -2.21378239810903E-14  -6.04059738590839E-12
      4.88699554398304E-30
      5.04948148148148E-02
      1.51484444444444E+00   1.51484444444444E+00   0.00000000000000E+00   0.00000000000000E+00   5.62847082503055E-12
      7.16148204738511E-13   6.34461902976906E-12   1.17384665244583E-28   0.00000000000000E+00   0.00000000000000E+00
      0.00000000000000E+00   0.00000000000000E+00  -6.31754827646653E-12  -2.70691548707866E-14  -6.34461743133732E-12
     -6.48373666231413E-30
      6.04948148148148E-02
      1.81484444444444E+00   1.81484444444444E+00   0.00000000000000E+00   0.00000000000000E+00   5.88645569400726E-12
      7.48874304152309E-13   6.63532999815956E-12   4.19023578325674E-29   0.00000000000000E+00   0.00000000000000E+00
      0.00000000000000E+00   0.00000000000000E+00  -6.60488077266094E-12  -3.04493305352039E-14  -6.63533010319614E-12
      1.93544377979526E-31
      7.04948148148148E-02
      2.11484444444444E+00   2.11484444444444E+00   0.00000000000000E+00   0.00000000000000E+00   6.14227509230623E-12
      7.81317351979340E-13   6.92359244428557E-12   6.77405322928342E-31   0.00000000000000E+00   0.00000000000000E+00
      0.00000000000000E+00   0.00000000000000E+00  -6.89052443094005E-12  -3.30695663111324E-14  -6.92359399725118E-12
      5.51601477241650E-30
      8.04948148148148E-02
      2.41484444444444E+00   2.41484444444444E+00   0.00000000000000E+00   0.00000000000000E+00   6.40279684350540E-12
      8.14347785571014E-13   7.21714462907641E-12   9.58044670998655E-30   0.00000000000000E+00   0.00000000000000E+00
      0.00000000000000E+00   0.00000000000000E+00  -7.18178110112811E-12  -3.53629732297374E-14  -7.21714407435785E-12
     -9.29013014301726E-30
      9.04948148148148E-02
      2.71484444444444E+00   2.71484444444444E+00   0.00000000000000E+00   0.00000000000000E+00   6.67340724574868E-12
      8.48648560613575E-13   7.52205580636225E-12   5.09989435976052E-29   0.00000000000000E+00   0.00000000000000E+00
      0.00000000000000E+00   0.00000000000000E+00  -7.48454394354669E-12  -3.75116518924220E-14  -7.52205559543912E-12
     -1.56770946163416E-29
      1.00494814814815E-01
      3.01484444444444E+00   3.01484444444444E+00   0.00000000000000E+00   0.00000000000000E+00   6.95896823601553E-12
      8.84834265983914E-13   7.84380250199945E-12   5.80633133938579E-30   0.00000000000000E+00   0.00000000000000E+00
      0.00000000000000E+00   0.00000000000000E+00  -7.80402510148076E-12  -3.97770706567887E-14  -7.84380217213755E-12
      5.32247039443697E-30
      1.10494814814815E-01
      3.31484444444444E+00   3.31484444444444E+00   0.00000000000000E+00   0.00000000000000E+00   7.26397723157423E-12
      9.23473064580270E-13   8.18745029615450E-12  -4.57732453921580E-29   0.00000000000000E+00   0.00000000000000E+00
      0.00000000000000E+00   0.00000000000000E+00  -8.14518290183087E-12  -4.22674918273379E-14  -8.18745039365820E-12
     -2.70962129171337E-30
      1.20494814814815E-01
      3.61484444444444E+00   3.61484444444444E+00   0.00000000000000E+00   0.00000000000000E+00   7.59305619666128E-12
      9.65147747843970E-13   8.55820394450525E-12   4.93538163847792E-30   0.00000000000000E+00   0.00000000000000E+00
      0.00000000000000E+00   0.00000000000000E+00  -8.51299337015825E-12  -4.52101800936160E-14  -8.55820355025187E-12
      1.68383608842188E-29
      1.30494814814815E-01
      3.91484444444444E+00   3.91484444444444E+00   0.00000000000000E+00   0.00000000000000E+00   7.95115274246327E-12
      1.01048182664315E-12   8.96163456910642E-12   9.48367452099679E-30   0.00000000000000E+00   0.00000000000000E+00
      0.00000000000000E+00   0.00000000000000E+00  -8.91263545479416E-12  -4.89997289439037E-14  -8.96163518373807E-12
      2.98058342088470E-29
      1.40494814814815E-01
      4.21484444444444E+00   4.21484444444444E+00   0.00000000000000E+00   0.00000000000000E+00   8.34358340556557E-12
      1.06014359082965E-12   9.40372699639522E-12   3.57089377372226E-29   0.00000000000000E+00   0.00000000000000E+00
      0.00000000000000E+00   0.00000000000000E+00  -9.34962557098808E-12  -5.41014374123311E-14  -9.40372700840041E-12
      1.35481064585668E-30
      1.50494814814815E-01
      4.51484444444444E+00   4.51484444444444E+00   0.00000000000000E+00   0.00000000000000E+00   8.77613575279106E-12
      1.11486007525519E-12   9.89099582804624E-12   1.18933020268419E-28   0.00000000000000E+00   0.00000000000000E+00
      0.00000000000000E+00   0.00000000000000E+00  -9.82991959121149E-12  -6.10761635204174E-14  -9.89099575473190E-12
      5.03215382746768E-30
      1.60494814814815E-01
      4.81484444444444E+00   4.81484444444444E+00   0.00000000000000E+00   0.00000000000000E+00   9.25528174658148E-12
      1.17544263952260E-12   1.04307243861041E-11   1.02578520329149E-29   0.00000000000000E+00   0.00000000000000E+00
      0.00000000000000E+00   0.00000000000000E+00  -1.03599909035863E-11  -7.07336127847662E-14  -1.04307245163711E-11
     -1.39351952145259E-29
      1.70494814814815E-01
      5.11484444444444E+00   5.11484444444444E+00   0.00000000000000E+00   0.00000000000000E+00   9.78826207502311E-12
      1.24279737299564E-12   1.10310594480187E-11  -8.46756653660427E-29   0.00000000000000E+00   0.00000000000000E+00
      0.00000000000000E+00   0.00000000000000E+00  -1.09468880867129E-11  -8.41713881146684E-14  -1.10310594748276E-11
      7.54823074120153E-30
      1.80494814814815E-01
      5.41484444444445E+00   5.41484444444445E+00   0.00000000000000E+00   0.00000000000000E+00   1.03831758852977E-11
      1.31793579383210E-12   1.17011116791298E-11   5.23537542434619E-29   0.00000000000000E+00   0.00000000000000E+00
      0.00000000000000E+00   0.00000000000000E+00  -1.15982725075841E-11  -1.02839204354008E-13  -1.17011117119382E-11
     -1.18062070567511E-29
      1.90494814814815E-01
      5.71484444444445E+00   5.71484444444445E+00   0.00000000000000E+00   0.00000000000000E+00   1.10490698874161E-11
      1.40198518003238E-12   1.24510550674485E-11  -5.14828045425540E-29   0.00000000000000E+00   0.00000000000000E+00
      0.00000000000000E+00   0.00000000000000E+00  -1.23224325195927E-11  -1.28622682628462E-13  -1.24510552022211E-11
     -1.02578520329149E-29
      2.00494814814815E-01
      6.01484444444445E+00   6.01484444444445E+00   0.00000000000000E+00   0.00000000000000E+00   1.17959831083248E-11
      1.49619295486367E-12   1.32921760631885E-11   3.13541892326833E-29   0.00000000000000E+00   0.00000000000000E+00
      0.00000000000000E+00   0.00000000000000E+00  -1.31282686185143E-11  -1.63907689554119E-13  -1.32921763080684E-11
      1.50964614824031E-29
      2.10494814814815E-01
      6.31484444444445E+00   6.31484444444445E+00   0.00000000000000E+00   0.00000000000000E+00   1.26349802708322E-11
      1.60192930293596E-12   1.42369095737682E-11  -7.37404080101995E-29   0.00000000000000E+00   0.00000000000000E+00
      0.00000000000000E+00   0.00000000000000E+00  -1.40252431976645E-11  -2.11666145912308E-13  -1.42369093435768E-11
      4.83860944948816E-30
      2.20494814814815E-01
      6.61484444444445E+00   6.61484444444445E+00   0.00000000000000E+00   0.00000000000000E+00   1.35781726954497E-11
      1.72068867977914E-12   1.52988613752289E-11  -4.49990678802399E-29   0.00000000000000E+00   0.00000000000000E+00
      0.00000000000000E+00   0.00000000000000E+00  -1.50232894754860E-11  -2.75571842522116E-13  -1.52988613180081E-11
      1.54835502383621E-29
      2.30494814814815E-01
      6.91484444444445E+00   6.91484444444445E+00   0.00000000000000E+00   0.00000000000000E+00   1.46387387661976E-11
      1.85408996634480E-12   1.64928287325424E-11   4.80957779279123E-29   0.00000000000000E+00   0.00000000000000E+00
      0.00000000000000E+00   0.00000000000000E+00  -1.61326728389113E-11  -3.60155778367967E-13  -1.64928286172793E-11
     -5.80633133938579E-31
      2.40494814814815E-01
      7.21484444444445E+00   7.21484444444445E+00   0.00000000000000E+00   0.00000000000000E+00   1.58309041356613E-11
      2.00387157497807E-12   1.78347757106393E-11   4.78054613609430E-29   0.00000000000000E+00   0.00000000000000E+00
      0.00000000000000E+00   0.00000000000000E+00  -1.73637978676787E-11  -4.70977713109891E-13  -1.78347755807885E-11
      2.39995028694613E-29
      2.50494814814815E-01
      7.51484444444445E+00   7.51484444444445E+00   0.00000000000000E+00   0.00000000000000E+00   1.71698623516793E-11
      2.17187772693955E-12   1.93417400786189E-11  -1.66448165062393E-29   0.00000000000000E+00   0.00000000000000E+00
      0.00000000000000E+00   0.00000000000000E+00  -1.87269543872999E-11  -6.14785732530522E-13  -1.93417401198304E-11
     -2.78703904290518E-29
      2.60494814814815E-01
      7.81484444444445E+00   7.81484444444445E+00   0.00000000000000E+00   0.00000000000000E+00   1.86716433889715E-11
      2.36004176125858E-12   2.10316851502301E-11   7.60629405459538E-29   0.00000000000000E+00   0.00000000000000E+00
      0.00000000000000E+00   0.00000000000000E+00  -2.02320000364533E-11  -7.99685138263691E-13  -2.10316851747170E-11
      3.67734318161100E-29
      2.70494814814815E-01
      8.11484444444445E+00   8.11484444444445E+00   0.00000000000000E+00   0.00000000000000E+00   2.03529541507331E-11
      2.57035946895633E-12   2.29233136196894E-11   1.52900058603826E-29   0.00000000000000E+00   0.00000000000000E+00
      0.00000000000000E+00   0.00000000000000E+00  -2.18879805943768E-11  -1.03533295544447E-12  -2.29233135498213E-11
     -4.10314081316596E-29
      2.80494814814815E-01
      8.41484444444445E+00   8.41484444444445E+00   0.00000000000000E+00   0.00000000000000E+00   2.22309901215042E-11
      2.80486309830701E-12   2.50358532198112E-11   2.92252010749085E-29   0.00000000000000E+00   0.00000000000000E+00
      0.00000000000000E+00   0.00000000000000E+00  -2.37026962216496E-11  -1.33315694544619E-12  -2.50358531670958E-11
     -2.36124141135022E-29
      2.90494814814815E-01
      8.71484444444445E+00   8.71484444444445E+00   0.00000000000000E+00   0.00000000000000E+00   2.43232388229914E-11
      3.06559251105067E-12   2.73888313340420E-11   1.83867159080550E-29   0.00000000000000E+00   0.00000000000000E+00
      0.00000000000000E+00   0.00000000000000E+00  -2.56822288001769E-11  -1.70660254137339E-12  -2.73888313415503E-11
      5.41924258342674E-30
      3.00494814814815E-01
      9.01484444444445E+00   9.01484444444445E+00   0.00000000000000E+00   0.00000000000000E+00   2.66473041645795E-11
      3.35456917312946E-12   3.00018733377089E-11   7.83854730817081E-30   0.00000000000000E+00   0.00000000000000E+00
      0.00000000000000E+00   0.00000000000000E+00  -2.78304551205198E-11  -2.17141814021291E-12  -3.00018732607327E-11
     -2.70962129171337E-30
      3.10494814814815E-01
      9.31484444444445E+00   9.31484444444445E+00   0.00000000000000E+00   0.00000000000000E+00   2.92207839203659E-11
      3.67377673131531E-12   3.28945606516813E-11   2.16769703337069E-29   0.00000000000000E+00   0.00000000000000E+00
      0.00000000000000E+00   0.00000000000000E+00  -3.01485802403940E-11  -2.74598038705692E-12  -3.28945606274510E-11
      7.74177511918105E-31
      3.20494814814815E-01
      9.61484444444445E+00   9.61484444444445E+00   0.00000000000000E+00   0.00000000000000E+00   3.20612382779020E-11
      4.02515237375620E-12   3.60863906516582E-11  -2.98058342088470E-29   0.00000000000000E+00   0.00000000000000E+00
      0.00000000000000E+00   0.00000000000000E+00  -3.26347330324948E-11  -3.45165762591507E-12  -3.60863906584098E-11
     -4.60635619591273E-29
      3.30494814814815E-01
      9.91484444444445E+00   9.91484444444445E+00   0.00000000000000E+00   0.00000000000000E+00   3.51863004178784E-11
      4.41059678122223E-12   3.95968971991007E-11   3.58057099262124E-30   0.00000000000000E+00   0.00000000000000E+00
      0.00000000000000E+00   0.00000000000000E+00  -3.52836693083736E-11  -4.31322785472209E-12  -3.95968971630957E-11
      1.19997514347306E-29
      3.40494814814815E-01
      1.02148444444444E+01   1.02148444444444E+01   0.00000000000000E+00   0.00000000000000E+00   3.86139981802985E-11
      4.83200895987977E-12   4.34460071401783E-11   3.93862809188336E-29   0.00000000000000E+00   0.00000000000000E+00
      0.00000000000000E+00   0.00000000000000E+00  -3.80866210898702E-11  -5.35938608460686E-12  -4.34460071744770E-11
     -2.32253253575432E-30
      3.50494814814815E-01
      1.05148444444444E+01   1.05148444444444E+01   0.00000000000000E+00   0.00000000000000E+00   4.23633641114958E-11
      5.29135203732137E-12   4.76547161488171E-11  -4.99344495187178E-29   0.00000000000000E+00   0.00000000000000E+00
      0.00000000000000E+00   0.00000000000000E+00  -4.10313102356312E-11  -6.62340595968923E-12  -4.76547161953205E-11
      9.67721889897631E-30
      3.60494814814815E-01
      1.08148444444445E+01   1.08148444444445E+01   0.00000000000000E+00   0.00000000000000E+00   4.64554961599416E-11
      5.79079450431407E-12   5.22462906642556E-11   8.57401594449301E-29   0.00000000000000E+00   0.00000000000000E+00
      0.00000000000000E+00   0.00000000000000E+00  -4.41021058173994E-11  -8.14418486586919E-12  -5.22462906832686E-11
      6.19342009534484E-30
      3.70494814814815E-01
      1.11148444444445E+01   1.11148444444445E+01   0.00000000000000E+00   0.00000000000000E+00   5.09153015439412E-11
      6.33287356463764E-12   5.72481751085789E-11  -1.10320295448330E-29   0.00000000000000E+00   0.00000000000000E+00
      0.00000000000000E+00   0.00000000000000E+00  -4.72802525969320E-11  -9.96792251951520E-12  -5.72481751164472E-11
     -9.67721889897631E-30
      3.80494814814815E-01
      1.14148444444444E+01   1.14148444444444E+01   0.00000000000000E+00   0.00000000000000E+00   5.57713608257969E-11
      6.92049760913833E-12   6.26918584349352E-11  -5.97084406066838E-29   0.00000000000000E+00   0.00000000000000E+00
      0.00000000000000E+00   0.00000000000000E+00  -5.05440540790915E-11  -1.21478043652140E-11  -6.26918584443055E-11
     -1.12255739228125E-29
      3.90494814814815E-01
      1.17148444444445E+01   1.17148444444445E+01   0.00000000000000E+00   0.00000000000000E+00   6.10608287658113E-11
      7.55750060472659E-12   6.86183293705379E-11   4.27733075334753E-29   0.00000000000000E+00   0.00000000000000E+00
      0.00000000000000E+00   0.00000000000000E+00  -5.38688380869412E-11  -1.47494912862075E-11  -6.86183293731487E-11
     -1.93544377979526E-30
      4.00494814814815E-01
      1.20148444444445E+01   1.20148444444445E+01   0.00000000000000E+00   0.00000000000000E+00   6.68412327976348E-11
      8.25002317660367E-12   7.50912559742385E-11  -1.86770324750243E-29   0.00000000000000E+00   0.00000000000000E+00
      0.00000000000000E+00   0.00000000000000E+00  -5.72266159594734E-11  -1.78646400223975E-11  -7.50912559818709E-11
     -1.66448165062393E-29
      4.10494814814815E-01
      1.23148444444445E+01   1.23148444444445E+01   0.00000000000000E+00   0.00000000000000E+00   7.31985630308172E-11
      9.00738717247108E-12   8.22059502032883E-11  -2.61284910272360E-30   0.00000000000000E+00   0.00000000000000E+00
      0.00000000000000E+00   0.00000000000000E+00  -6.05855989925861E-11  -2.16203512203646E-11  -8.22059502129507E-11
     -2.47736803813794E-29
      4.20494814814815E-01
      1.26148444444445E+01   1.26148444444445E+01   0.00000000000000E+00   0.00000000000000E+00   8.02590635375061E-11
      9.84335869419907E-12   9.01024222317052E-11  -6.19342009534484E-30   0.00000000000000E+00   0.00000000000000E+00
      0.00000000000000E+00   0.00000000000000E+00  -6.39100948029921E-11  -2.61923274241886E-11  -9.01024222271807E-11
     -4.68377394710454E-29
      4.30494814814815E-01
      1.29148444444445E+01   1.29148444444445E+01   0.00000000000000E+00   0.00000000000000E+00   8.82097199114641E-11
      1.07783420496622E-11   9.89880619611263E-11   2.12898815777479E-30   0.00000000000000E+00   0.00000000000000E+00
      0.00000000000000E+00   0.00000000000000E+00  -6.71618738874815E-11  -3.18261880747548E-11  -9.89880619622364E-11
     -1.43222839704849E-29
      4.40494814814815E-01
      1.32148444444445E+01   1.32148444444445E+01   0.00000000000000E+00   0.00000000000000E+00   9.73139832842046E-11
      1.18408541816553E-11   1.09154837465860E-10   2.57414022712770E-29   0.00000000000000E+00   0.00000000000000E+00
      0.00000000000000E+00   0.00000000000000E+00  -7.03043686724522E-11  -3.88504688029922E-11  -1.09154837475444E-10
      3.48379880363147E-29
      4.50494814814815E-01
      1.35148444444445E+01   1.35148444444445E+01   0.00000000000000E+00   0.00000000000000E+00   1.07917527764509E-10
      1.30676495917008E-11   1.20985177356210E-10  -4.10314081316596E-29   0.00000000000000E+00   0.00000000000000E+00
      0.00000000000000E+00   0.00000000000000E+00  -7.33100510844029E-11  -4.76751262682686E-11  -1.20985177352672E-10
     -1.16126626787716E-30
      4.60494814814815E-01
      1.38148444444445E+01   1.38148444444445E+01   0.00000000000000E+00   0.00000000000000E+00   1.20440593948397E-10
      1.45021088654406E-11   1.34942702813838E-10  -2.26446922236046E-29   0.00000000000000E+00   0.00000000000000E+00
      0.00000000000000E+00   0.00000000000000E+00  -7.61684441689724E-11  -5.87742586429161E-11  -1.34942702811889E-10
      2.98058342088470E-29
      4.70494814814815E-01
      1.41148444444445E+01   1.41148444444445E+01   0.00000000000000E+00   0.00000000000000E+00   1.35309077501689E-10
      1.61855680860323E-11   1.51494645587721E-10  -2.46769081923896E-29   0.00000000000000E+00   0.00000000000000E+00
      0.00000000000000E+00   0.00000000000000E+00  -7.88189896777142E-11  -7.26756559086950E-11  -1.51494645586409E-10
      1.00643076549354E-29
      4.80494814814815E-01
      1.44148444444445E+01   1.44148444444445E+01   0.00000000000000E+00   0.00000000000000E+00   1.53157839158257E-10
      1.81793211009942E-11   1.71337160259252E-10   6.46438222451618E-29   0.00000000000000E+00   0.00000000000000E+00
      0.00000000000000E+00   0.00000000000000E+00  -8.14127319522436E-11  -8.99244283049289E-11  -1.71337160257173E-10
     -1.12255739228125E-29
      4.90494814814815E-01
      1.47148444444445E+01   1.47148444444445E+01   0.00000000000000E+00   0.00000000000000E+00   1.74446314017713E-10
      2.05201699280966E-11   1.94966483945810E-10   2.45801360033998E-29   0.00000000000000E+00   0.00000000000000E+00
      0.00000000000000E+00   0.00000000000000E+00  -8.37796358948041E-11  -1.11186848051827E-10  -1.94966483946631E-10
      1.85802602860345E-29
      5.00494814814815E-01
      1.50148444444445E+01   1.50148444444445E+01   0.00000000000000E+00   0.00000000000000E+00   2.00067198720758E-10
      2.32864825232404E-11   2.23353681243998E-10   2.57414022712770E-29   0.00000000000000E+00   0.00000000000000E+00
      0.00000000000000E+00   0.00000000000000E+00  -8.62026813752052E-11  -1.37150999876636E-10  -2.23353681251842E-10
      4.18055856435777E-29
      5.10494814814815E-01
      1.53148444444445E+01   1.53148444444445E+01   0.00000000000000E+00   0.00000000000000E+00   2.30680035550376E-10
      2.65229208834566E-11   2.57202956433832E-10   2.66123519721849E-29   0.00000000000000E+00   0.00000000000000E+00
      0.00000000000000E+00   0.00000000000000E+00  -8.83394098220538E-11  -1.68863546610252E-10  -2.57202956432306E-10
     -4.33539406674139E-29
      5.20494814814815E-01
      1.56148444444445E+01   1.56148444444445E+01   0.00000000000000E+00   0.00000000000000E+00   2.67709842020988E-10
      3.03440802995425E-11   2.98053922320530E-10   9.09658576503773E-30   0.00000000000000E+00   0.00000000000000E+00
      0.00000000000000E+00   0.00000000000000E+00  -9.06922884357752E-11  -2.07361633888901E-10  -2.98053922324676E-10
     -3.09671004767242E-30
      5.30494814814815E-01
      1.59148444444445E+01   1.59148444444445E+01   0.00000000000000E+00   0.00000000000000E+00   3.12191058783919E-10
      3.48085097356052E-11   3.46999568519524E-10   7.25791417423224E-30   0.00000000000000E+00   0.00000000000000E+00
      0.00000000000000E+00   0.00000000000000E+00  -9.26828834315543E-11  -2.54316685144556E-10  -3.46999568576110E-10
     -2.78703904290518E-29
      5.40494814814815E-01
      1.62148444444445E+01   1.62148444444445E+01   0.00000000000000E+00   0.00000000000000E+00   3.65957882603281E-10
      4.00371499583974E-11   4.05995032561679E-10  -4.02572306197415E-29   0.00000000000000E+00   0.00000000000000E+00
      0.00000000000000E+00   0.00000000000000E+00  -9.47998971369320E-11  -3.11195135391879E-10  -4.05995032528811E-10
     -1.00643076549354E-28
      5.45494814814815E-01
      1.63648444444445E+01   1.63648444444445E+01   0.00000000000000E+00   0.00000000000000E+00   3.96920573538593E-10
      4.29712234273755E-11   4.39891796965969E-10   4.49022956912501E-29   0.00000000000000E+00   0.00000000000000E+00
      0.00000000000000E+00   0.00000000000000E+00  -9.60742133491101E-11  -3.43817583601661E-10  -4.39891796950771E-10
     -8.43853487990735E-29
      5.49161481481482E-01
      1.64748444444445E+01   1.64748444444445E+01   0.00000000000000E+00   0.00000000000000E+00   4.21381475979385E-10
      4.52518970653862E-11   4.66633373044771E-10   5.58375530470933E-29   0.00000000000000E+00   0.00000000000000E+00
      0.00000000000000E+00   0.00000000000000E+00  -9.68458878552611E-11  -3.69787485267210E-10  -4.66633373122471E-10
      3.56121655482328E-29
      5.53805925925926E-01
      1.66141777777778E+01   1.66141777777778E+01   0.00000000000000E+00   0.00000000000000E+00   4.54724159858186E-10
      4.83102850210046E-11   5.03034444879191E-10  -5.70955915039602E-30   0.00000000000000E+00   0.00000000000000E+00
      0.00000000000000E+00   0.00000000000000E+00  -9.77768758904329E-11  -4.05257568891941E-10  -5.03034444782374E-10
     -2.01286153098707E-29
      5.62165925925926E-01
      1.68649777777778E+01   1.68649777777778E+01   0.00000000000000E+00   0.00000000000000E+00   5.21969961560963E-10
      5.43131532308905E-11   5.76283114791854E-10  -2.93219732638982E-29   0.00000000000000E+00   0.00000000000000E+00
      0.00000000000000E+00   0.00000000000000E+00  -9.94221269111149E-11  -4.76860987938828E-10  -5.76283114849943E-10
      1.70319052621983E-29
      5.72165925925926E-01
      1.71649777777778E+01   1.71649777777778E+01   0.00000000000000E+00   0.00000000000000E+00   6.16045179514061E-10
      6.23753401878611E-11   6.78420519701922E-10   1.34513342695771E-29   0.00000000000000E+00   0.00000000000000E+00
      0.00000000000000E+00   0.00000000000000E+00  -1.01513300547452E-10  -5.76907218804187E-10  -6.78420519351638E-10
     -8.20628162633191E-29
      5.74665925925926E-01
      1.72399777777778E+01   1.72399777777778E+01   0.00000000000000E+00   0.00000000000000E+00   6.42149888546863E-10
      6.45285008651681E-11   7.06678389412031E-10   1.11288017338228E-29   0.00000000000000E+00   0.00000000000000E+00
      0.00000000000000E+00   0.00000000000000E+00  -1.02092184291399E-10  -6.04586205007502E-10  -7.06678389298901E-10
     -5.57407808581036E-29
      5.75874259259260E-01
      1.72762277777778E+01   1.72762277777778E+01   0.00000000000000E+00   0.00000000000000E+00   6.55133996866725E-10
      6.56195267238844E-11   7.20753523590610E-10  -3.07735560987447E-29   0.00000000000000E+00   0.00000000000000E+00
      0.00000000000000E+00   0.00000000000000E+00  -1.02386024898999E-10  -6.18367498994816E-10  -7.20753523893814E-10
     -3.09671004767242E-29
      5.76458287037037E-01
      1.72937486111111E+01   1.72937486111111E+01   0.00000000000000E+00   0.00000000000000E+00   6.61512979695074E-10
      6.61450890208748E-11   7.27658068715949E-10   3.43541270913659E-29   0.00000000000000E+00   0.00000000000000E+00
      0.00000000000000E+00   0.00000000000000E+00  -1.02534216913436E-10  -6.25123851870122E-10  -7.27658068783558E-10
     -2.55478578932975E-29
      5.76599427083334E-01
      1.72979828125000E+01   1.72979828125000E+01   0.00000000000000E+00   0.00000000000000E+00   6.62901266253902E-10
      6.62589758052569E-11   7.29160242059159E-10   9.67721889897631E-30   0.00000000000000E+00   0.00000000000000E+00
      0.00000000000000E+00   0.00000000000000E+00  -1.02262675659333E-10  -6.26897566558842E-10  -7.29160242218176E-10
     -4.49022956912501E-29
}
