DF-ISE text

Info {
  version   = 1.0
  type      = xyplot
  datasets  = [
    "time"
    "ntype OuterVoltage" "ntype InnerVoltage" "ntype QuasiFermiPotential" "ntype DisplacementCurrent" "ntype eCurrent"
    "ntype hCurrent" "ntype TotalCurrent" "ntype Charge" "ptype OuterVoltage" "ptype InnerVoltage"
    "ptype QuasiFermiPotential" "ptype DisplacementCurrent" "ptype eCurrent" "ptype hCurrent" "ptype TotalCurrent"
    "ptype Charge" ]
  functions = [
    Time
    OuterVoltage InnerVoltage QuasiFermiPotential DisplacementCurrent eCurrent
    hCurrent TotalCurrent Charge OuterVoltage InnerVoltage
    QuasiFermiPotential DisplacementCurrent eCurrent hCurrent TotalCurrent
    Charge ]
}

Data {
      0.00000000000000E+00
      0.00000000000000E+00   0.00000000000000E+00   0.00000000000000E+00   0.00000000000000E+00  -2.78528229116666E-24
      2.78528228759292E-24  -3.57374280648983E-33  -2.23543756566353E-29   0.00000000000000E+00   0.00000000000000E+00
      0.00000000000000E+00   0.00000000000000E+00   2.43949343248118E-28  -3.48358732606858E-25  -3.48114783263610E-25
     -1.14916974425344E-31
      0.00000000000000E+00
      0.00000000000000E+00   0.00000000000000E+00   0.00000000000000E+00   0.00000000000000E+00   6.31264186465798E-22
     -4.21861075011044E-22   2.09403111454754E-22  -1.65480443172495E-29   0.00000000000000E+00   0.00000000000000E+00
      0.00000000000000E+00   0.00000000000000E+00  -1.47507550305629E-25  -3.32935488677786E-25  -4.80443038983414E-25
      2.72171781533709E-31
      0.00000000000000E+00
      0.00000000000000E+00   0.00000000000000E+00   0.00000000000000E+00   0.00000000000000E+00   7.83583853487990E-24
      1.08994945087079E-25   7.94483347996697E-24   2.09995650107786E-29   0.00000000000000E+00   0.00000000000000E+00
      0.00000000000000E+00   0.00000000000000E+00   5.31565942369918E-28  -5.89214036955841E-27  -5.36057442718849E-27
      7.86274035541826E-32
      2.50000000000000E-03
      3.75000000000000E-02   3.75000000000000E-02   0.00000000000000E+00   0.00000000000000E+00   3.42658091361774E-13
      4.42043859369665E-14   3.86862477298741E-13   1.62577277502802E-29   0.00000000000000E+00   0.00000000000000E+00
      0.00000000000000E+00   0.00000000000000E+00  -1.77697474090780E-13  -2.09164997228801E-13  -3.86862471319581E-13
      3.88600821412018E-31
      7.00000000000000E-03
      1.05000000000000E-01   1.05000000000000E-01   0.00000000000000E+00   0.00000000000000E+00   1.85479330848369E-12
      2.39063129424121E-13   2.09385643790781E-12  -7.25791417423224E-30   0.00000000000000E+00   0.00000000000000E+00
      0.00000000000000E+00   0.00000000000000E+00  -8.90445592903676E-13  -1.20341084516392E-12  -2.09385643806759E-12
     -9.90402871692107E-32
      1.57000000000000E-02
      2.35500000000000E-01   2.35500000000000E-01   0.00000000000000E+00   0.00000000000000E+00   7.14213775428901E-12
      9.19111216725249E-13   8.06124897101426E-12  -2.04189318768400E-29   0.00000000000000E+00   0.00000000000000E+00
      0.00000000000000E+00   0.00000000000000E+00  -2.57628477096650E-12  -5.48496420001289E-12  -8.06124897097939E-12
      1.75399592543946E-31
      2.57000000000000E-02
      3.85500000000000E-01   3.85500000000000E-01   0.00000000000000E+00   0.00000000000000E+00   1.34108171660056E-11
      1.72173790117836E-12   1.51325550671840E-11  -4.30636241004446E-29   0.00000000000000E+00   0.00000000000000E+00
      0.00000000000000E+00   0.00000000000000E+00  -3.65942691938296E-12  -1.14731281487162E-11  -1.51325550680991E-11
      7.62080988294385E-31
      3.57000000000000E-02
      5.35500000000000E-01   5.35500000000000E-01   0.00000000000000E+00   0.00000000000000E+00   1.96240167985768E-11
      2.51273581342850E-12   2.21367526120053E-11  -1.64512721282597E-29   0.00000000000000E+00   0.00000000000000E+00
      0.00000000000000E+00   0.00000000000000E+00  -4.30018446076527E-12  -1.78365681512425E-11  -2.21367526120077E-11
      2.28624296488315E-30
      4.57000000000000E-02
      6.85500000000000E-01   6.85500000000000E-01   0.00000000000000E+00   0.00000000000000E+00   2.59899632697320E-11
      3.31823544689895E-12   2.93081987166309E-11   4.29668519114548E-29   0.00000000000000E+00   0.00000000000000E+00
      0.00000000000000E+00   0.00000000000000E+00  -4.74231324829534E-12  -2.45658854683462E-11  -2.93081987166415E-11
     -2.10479511052735E-30
      5.57000000000000E-02
      8.35500000000000E-01   8.35500000000000E-01   0.00000000000000E+00   0.00000000000000E+00   3.25991117424817E-11
      4.14917460003120E-12   3.67482863425129E-11  -2.61284910272360E-29   0.00000000000000E+00   0.00000000000000E+00
      0.00000000000000E+00   0.00000000000000E+00  -5.07843576768398E-12  -3.16698505748403E-11  -3.67482863425243E-11
     -7.25791417423224E-31
      6.57000000000000E-02
      9.85500000000000E-01   9.85500000000000E-01   0.00000000000000E+00   0.00000000000000E+00   3.94978977497409E-11
      5.01076291439070E-12   4.45086606641316E-11  -5.59343252360831E-29   0.00000000000000E+00   0.00000000000000E+00
      0.00000000000000E+00   0.00000000000000E+00  -5.35187148199688E-12  -3.91567891821041E-11  -4.45086606641010E-11
     -1.76609244906318E-30
      7.57000000000000E-02
      1.13550000000000E+00   1.13550000000000E+00   0.00000000000000E+00   0.00000000000000E+00   4.67142214949142E-11
      5.90578156461225E-12   5.26200030595265E-11  -4.06443193757005E-30   0.00000000000000E+00   0.00000000000000E+00
      0.00000000000000E+00   0.00000000000000E+00  -5.58570601797717E-12  -4.70342970415466E-11  -5.26200030595238E-11
      4.11281803206493E-30
      8.57000000000000E-02
      1.28550000000000E+00   1.28550000000000E+00   0.00000000000000E+00   0.00000000000000E+00   5.42668700808388E-11
      6.83580070089760E-12   6.11026707817364E-11  -5.90310352837555E-30   0.00000000000000E+00   0.00000000000000E+00
      0.00000000000000E+00   0.00000000000000E+00  -5.79342006532705E-12  -5.53092507163981E-11  -6.11026707817252E-11
      6.77405322928342E-31
      9.57000000000000E-02
      1.43550000000000E+00   1.43550000000000E+00   0.00000000000000E+00   0.00000000000000E+00   6.21695902407183E-11
      7.80170733350855E-12   6.99712975742269E-11   9.67721889897631E-30   0.00000000000000E+00   0.00000000000000E+00
      0.00000000000000E+00   0.00000000000000E+00  -5.98345007846202E-12  -6.39878474957389E-11  -6.99712975742009E-11
      6.19342009534484E-30
      1.05700000000000E-01
      1.58550000000000E+00   1.58550000000000E+00   0.00000000000000E+00   0.00000000000000E+00   7.04330579487475E-11
      8.80396245411988E-12   7.92370204028674E-11  -3.32896330124785E-29   0.00000000000000E+00   0.00000000000000E+00
      0.00000000000000E+00   0.00000000000000E+00  -6.16137430087422E-12  -7.30756461019418E-11  -7.92370204028160E-11
      3.14509614216730E-30
      1.15700000000000E-01
      1.73550000000000E+00   1.73550000000000E+00   0.00000000000000E+00   0.00000000000000E+00   7.90659168976202E-11
      9.84273841388572E-12   8.89086553115059E-11  -7.74177511918105E-30   0.00000000000000E+00   0.00000000000000E+00
      0.00000000000000E+00   0.00000000000000E+00  -6.33105184121408E-12  -8.25776034703154E-11  -8.89086553115295E-11
     -1.69351330732086E-30
      1.25700000000000E-01
      1.88550000000000E+00   1.88550000000000E+00   0.00000000000000E+00   0.00000000000000E+00   8.80753660262789E-11
      1.09179984009785E-11   9.89933644272575E-11   2.99993785868266E-30   0.00000000000000E+00   0.00000000000000E+00
      0.00000000000000E+00   0.00000000000000E+00  -6.49525734902224E-12  -9.24981070781614E-11  -9.89933644271836E-11
     -4.83860944948816E-30
      1.35700000000000E-01
      2.03550000000000E+00   2.03550000000000E+00   0.00000000000000E+00   0.00000000000000E+00   9.74675128073701E-11
      1.20295458482695E-11   1.09497058655640E-10   2.22576034676455E-29   0.00000000000000E+00   0.00000000000000E+00
      0.00000000000000E+00   0.00000000000000E+00  -6.65605515869358E-12  -1.02841003496808E-10  -1.09497058655502E-10
      3.38702661464171E-30
      1.45700000000000E-01
      2.18550000000000E+00   2.18550000000000E+00   0.00000000000000E+00   0.00000000000000E+00   1.07247597858211E-10
      1.31770573563617E-11   1.20424655214572E-10   4.45152069352910E-30   0.00000000000000E+00   0.00000000000000E+00
      0.00000000000000E+00   0.00000000000000E+00  -6.81503087720041E-12  -1.13609624337204E-10  -1.20424655214404E-10
      3.87088755959053E-30
      1.55700000000000E-01
      2.33550000000000E+00   2.33550000000000E+00   0.00000000000000E+00   0.00000000000000E+00   1.17420145604523E-10
      1.43601061249411E-11   1.31780251729464E-10   5.90310352837555E-30   0.00000000000000E+00   0.00000000000000E+00
      0.00000000000000E+00   0.00000000000000E+00  -6.97344095430114E-12  -1.24806810774952E-10  -1.31780251729253E-10
     -1.20965236237204E-29
      1.65700000000000E-01
      2.48550000000000E+00   2.48550000000000E+00   0.00000000000000E+00   0.00000000000000E+00   1.27989070766293E-10
      1.55781796447048E-11   1.43567250410998E-10   2.70962129171337E-30   0.00000000000000E+00   0.00000000000000E+00
      0.00000000000000E+00   0.00000000000000E+00  -7.13231289005780E-12  -1.36434937520673E-10  -1.43567250410731E-10
     -5.22569820544721E-30
      1.75700000000000E-01
      2.63550000000000E+00   2.63550000000000E+00   0.00000000000000E+00   0.00000000000000E+00   1.38957757357831E-10
      1.68306938125416E-11   1.55788451170373E-10   2.15801981447172E-29   0.00000000000000E+00   0.00000000000000E+00
      0.00000000000000E+00   0.00000000000000E+00  -7.29251449717740E-12  -1.48495936672930E-10  -1.55788451170107E-10
     -1.22900680016999E-29
      1.85700000000000E-01
      2.78550000000000E+00   2.78550000000000E+00   0.00000000000000E+00   0.00000000000000E+00   1.50329119939534E-10
      1.81170046443571E-11   1.68446124583891E-10  -3.09671004767242E-30   0.00000000000000E+00   0.00000000000000E+00
      0.00000000000000E+00   0.00000000000000E+00  -7.45480304442650E-12  -1.60991321539201E-10  -1.68446124583627E-10
      9.38690233200702E-30
      1.95700000000000E-01
      2.93550000000000E+00   2.93550000000000E+00   0.00000000000000E+00   0.00000000000000E+00   1.62105653056892E-10
      1.94364183533939E-11   1.81542071410286E-10   1.53867780493723E-29   0.00000000000000E+00   0.00000000000000E+00
      0.00000000000000E+00   0.00000000000000E+00  -7.61985515550084E-12  -1.73922216254355E-10  -1.81542071409855E-10
     -1.93544377979526E-31
      2.05700000000000E-01
      3.08550000000000E+00   3.08550000000000E+00   0.00000000000000E+00   0.00000000000000E+00   1.74289454933168E-10
      2.07881982927306E-11   1.95077653225899E-10   6.67728104029366E-30   0.00000000000000E+00   0.00000000000000E+00
      0.00000000000000E+00   0.00000000000000E+00  -7.78883881798146E-12  -1.87288814407216E-10  -1.95077653225198E-10
      1.56770946163416E-29
      2.15700000000000E-01
      3.23550000000000E+00   3.23550000000000E+00   0.00000000000000E+00   0.00000000000000E+00   1.86882302763878E-10
      2.21715773189066E-11   2.09053880082785E-10   3.99669140527722E-29   0.00000000000000E+00   0.00000000000000E+00
      0.00000000000000E+00   0.00000000000000E+00  -7.96209075386223E-12  -2.01091789328316E-10  -2.09053880082178E-10
     -6.67728104029366E-30
      2.25700000000000E-01
      3.38550000000000E+00   3.38550000000000E+00   0.00000000000000E+00   0.00000000000000E+00   1.99885650918052E-10
      2.35857613482505E-11   2.23471412266302E-10  -2.37091863024920E-29   0.00000000000000E+00   0.00000000000000E+00
      0.00000000000000E+00   0.00000000000000E+00  -8.14023995979856E-12  -2.15331172305787E-10  -2.23471412265585E-10
     -2.81607069960211E-29
      2.35700000000000E-01
      3.53550000000000E+00   3.53550000000000E+00   0.00000000000000E+00   0.00000000000000E+00   2.13300667360693E-10
      2.50299369030948E-11   2.38330604263788E-10  -8.70949700907868E-31   0.00000000000000E+00   0.00000000000000E+00
      0.00000000000000E+00   0.00000000000000E+00  -8.32391781677196E-12  -2.30006686446207E-10  -2.38330604262979E-10
      1.87738046640140E-29
      2.45700000000000E-01
      3.68550000000000E+00   3.68550000000000E+00   0.00000000000000E+00   0.00000000000000E+00   2.27128259930029E-10
      2.65032772737521E-11   2.53631537203781E-10   1.03546242219047E-29   0.00000000000000E+00   0.00000000000000E+00
      0.00000000000000E+00   0.00000000000000E+00  -8.51376006460055E-12  -2.45117777137975E-10  -2.53631537202576E-10
     -7.64500293019129E-30
      2.55700000000000E-01
      3.83550000000000E+00   3.83550000000000E+00   0.00000000000000E+00   0.00000000000000E+00   2.41369101721191E-10
      2.80049482878366E-11   2.69374050009028E-10  -1.19029792457409E-29   0.00000000000000E+00   0.00000000000000E+00
      0.00000000000000E+00   0.00000000000000E+00  -8.71041348351218E-12  -2.60663636524045E-10  -2.69374050007557E-10
      9.48367452099679E-30
      2.65700000000000E-01
      3.98550000000000E+00   3.98550000000000E+00   0.00000000000000E+00   0.00000000000000E+00   2.56023656660469E-10
      2.95341138099728E-11   2.85557770470442E-10   2.42898194364305E-29   0.00000000000000E+00   0.00000000000000E+00
      0.00000000000000E+00   0.00000000000000E+00  -8.91454132295742E-12  -2.76643229146017E-10  -2.85557770468974E-10
     -4.23862187775163E-29
      2.75700000000000E-01
      4.13550000000000E+00   4.13550000000000E+00   0.00000000000000E+00   0.00000000000000E+00   2.71092206075709E-10
      3.10899410170566E-11   3.02182147092766E-10  -8.12886387514010E-30   0.00000000000000E+00   0.00000000000000E+00
      0.00000000000000E+00   0.00000000000000E+00  -9.12682779286371E-12  -2.93055319298528E-10  -3.02182147091392E-10
     -7.54823074120153E-30
      2.85700000000000E-01
      4.28550000000000E+00   4.28550000000000E+00   0.00000000000000E+00   0.00000000000000E+00   2.86574876918694E-10
      3.26716054888134E-11   3.19246482407507E-10  -1.45158283484645E-30   0.00000000000000E+00   0.00000000000000E+00
      0.00000000000000E+00   0.00000000000000E+00  -9.34798184351432E-12  -3.09898500562436E-10  -3.19246482405950E-10
     -2.55478578932975E-29
      2.95700000000000E-01
      4.43550000000000E+00   4.43550000000000E+00   0.00000000000000E+00   0.00000000000000E+00   3.02471672115926E-10
      3.42782961312699E-11   3.36749968247196E-10   9.29013014301726E-30   0.00000000000000E+00   0.00000000000000E+00
      0.00000000000000E+00   0.00000000000000E+00  -9.57874039610314E-12  -3.27171227848408E-10  -3.36749968244511E-10
      2.01286153098707E-29
      3.05700000000000E-01
      4.58550000000000E+00   4.58550000000000E+00   0.00000000000000E+00   0.00000000000000E+00   3.18782503325176E-10
      3.59092198972420E-11   3.54691723222418E-10  -4.58700175811477E-29   0.00000000000000E+00   0.00000000000000E+00
      0.00000000000000E+00   0.00000000000000E+00  -9.81987113861210E-12  -3.44871852080050E-10  -3.54691723218662E-10
      1.85802602860345E-29
      3.15700000000000E-01
      4.73550000000000E+00   4.73550000000000E+00   0.00000000000000E+00   0.00000000000000E+00   3.35507226057249E-10
      3.75636062919880E-11   3.73070832349237E-10   1.38384230255361E-29   0.00000000000000E+00   0.00000000000000E+00
      0.00000000000000E+00   0.00000000000000E+00  -1.00721749653467E-11  -3.62998657379901E-10  -3.73070832345248E-10
      2.47736803813794E-29
      3.25700000000000E-01
      4.88550000000000E+00   4.88550000000000E+00   0.00000000000000E+00   0.00000000000000E+00   3.52645676860499E-10
      3.92407115663314E-11   3.91886388426830E-10   3.18380501776321E-29   0.00000000000000E+00   0.00000000000000E+00
      0.00000000000000E+00   0.00000000000000E+00  -1.03364881094633E-11  -3.81549900314060E-10  -3.91886388423523E-10
      1.29674733246283E-29
      3.35700000000000E-01
      5.03550000000000E+00   5.03550000000000E+00   0.00000000000000E+00   0.00000000000000E+00   3.70197711890816E-10
      4.09398225284968E-11   4.11137534419313E-10   3.47412158473250E-29   0.00000000000000E+00   0.00000000000000E+00
      0.00000000000000E+00   0.00000000000000E+00  -1.06136839934253E-11  -4.00523850421745E-10  -4.11137534415170E-10
      1.87738046640140E-29
      3.45700000000000E-01
      5.18550000000000E+00   5.18550000000000E+00   0.00000000000000E+00   0.00000000000000E+00   3.88163245665810E-10
      4.26602601021117E-11   4.30823505767922E-10   2.64188075942053E-29   0.00000000000000E+00   0.00000000000000E+00
      0.00000000000000E+00   0.00000000000000E+00  -1.09046748011402E-11  -4.19918830961853E-10  -4.30823505762993E-10
     -1.41287395925054E-29
      3.55700000000000E-01
      5.33550000000000E+00   5.33550000000000E+00   0.00000000000000E+00   0.00000000000000E+00   4.06542289818519E-10
      4.44013814779818E-11   4.50943671296501E-10   8.22563606412987E-30   0.00000000000000E+00   0.00000000000000E+00
      0.00000000000000E+00   0.00000000000000E+00  -1.12104127557874E-11  -4.39733258535217E-10  -4.50943671291005E-10
     -1.97415265539117E-29
      3.65700000000000E-01
      5.48550000000000E+00   5.48550000000000E+00   0.00000000000000E+00   0.00000000000000E+00   4.25335992045830E-10
      4.61626757304854E-11   4.71498667776316E-10   7.45145855221176E-30   0.00000000000000E+00   0.00000000000000E+00
      0.00000000000000E+00   0.00000000000000E+00  -1.15318875673002E-11  -4.59966780203585E-10  -4.71498667770886E-10
      7.35468636322200E-30
      3.75700000000000E-01
      5.63550000000000E+00   5.63550000000000E+00   0.00000000000000E+00   0.00000000000000E+00   4.44542663377515E-10
      4.79433922001394E-11   4.92486055577655E-10  -1.60641833723007E-29   0.00000000000000E+00   0.00000000000000E+00
      0.00000000000000E+00   0.00000000000000E+00  -1.18701409417642E-11  -4.80615914630312E-10  -4.92486055572077E-10
     -5.03215382746768E-30
      3.85700000000000E-01
      5.78550000000000E+00   5.78550000000000E+00   0.00000000000000E+00   0.00000000000000E+00   4.64153640945282E-10
      4.97421771588974E-11   5.13895818104179E-10  -1.34513342695771E-29   0.00000000000000E+00   0.00000000000000E+00
      0.00000000000000E+00   0.00000000000000E+00  -1.22262825572648E-11  -5.01669535540750E-10  -5.13895818098015E-10
      8.70949700907868E-30
      3.95700000000000E-01
      5.93550000000000E+00   5.93550000000000E+00   0.00000000000000E+00   0.00000000000000E+00   4.84170112922697E-10
      5.15586187493734E-11   5.35728731672070E-10   2.17737425226967E-29   0.00000000000000E+00   0.00000000000000E+00
      0.00000000000000E+00   0.00000000000000E+00  -1.26014301794058E-11  -5.23127301486735E-10  -5.35728731666141E-10
     -1.83867159080550E-29
      4.05700000000000E-01
      6.08550000000000E+00   6.08550000000000E+00   0.00000000000000E+00   0.00000000000000E+00   5.04600361735819E-10
      5.33929525789764E-11   5.57993314314795E-10  -4.25797631554958E-30   0.00000000000000E+00   0.00000000000000E+00
      0.00000000000000E+00   0.00000000000000E+00  -1.29967163610182E-11  -5.44996597948815E-10  -5.57993314309834E-10
     -2.45801360033998E-29
      4.15700000000000E-01
      6.23550000000000E+00   6.23550000000000E+00   0.00000000000000E+00   0.00000000000000E+00   5.25442972709088E-10
      5.52445490347122E-11   5.80687521743801E-10   6.58050885130389E-30   0.00000000000000E+00   0.00000000000000E+00
      0.00000000000000E+00   0.00000000000000E+00  -1.34133482602361E-11  -5.67274173476826E-10  -5.80687521737062E-10
      2.14834259557274E-29
      4.25700000000000E-01
      6.38550000000000E+00   6.38550000000000E+00   0.00000000000000E+00   0.00000000000000E+00   5.46698750981011E-10
      5.71129959541084E-11   6.03811746935119E-10  -2.05157040658298E-29   0.00000000000000E+00   0.00000000000000E+00
      0.00000000000000E+00   0.00000000000000E+00  -1.38525625208775E-11  -5.89959184407200E-10  -6.03811746928078E-10
     -1.68383608842188E-29
      4.35700000000000E-01
      6.53550000000000E+00   6.53550000000000E+00   0.00000000000000E+00   0.00000000000000E+00   5.68368767018593E-10
      5.89979190792547E-11   6.27366686097848E-10   1.77093105851267E-29   0.00000000000000E+00   0.00000000000000E+00
      0.00000000000000E+00   0.00000000000000E+00  -1.43156292057692E-11  -6.13051056887915E-10  -6.27366686093684E-10
     -2.24511478456250E-29
      4.45700000000000E-01
      6.68550000000000E+00   6.68550000000000E+00   0.00000000000000E+00   0.00000000000000E+00   5.90454306938102E-10
      6.08989749778584E-11   6.51353281915960E-10   1.96447543649219E-29   0.00000000000000E+00   0.00000000000000E+00
      0.00000000000000E+00   0.00000000000000E+00  -1.48038480317381E-11  -6.36549433874592E-10  -6.51353281906331E-10
     -1.06449407888739E-29
      4.55700000000000E-01
      6.83550000000000E+00   6.83550000000000E+00   0.00000000000000E+00   0.00000000000000E+00   6.12956867520853E-10
      6.28158497661339E-11   6.75772717286987E-10  -1.97415265539117E-29   0.00000000000000E+00   0.00000000000000E+00
      0.00000000000000E+00   0.00000000000000E+00  -1.53185435383551E-11  -6.60454173741097E-10  -6.75772717279452E-10
      8.12886387514010E-30
      4.65700000000000E-01
      6.98550000000000E+00   6.98550000000000E+00   0.00000000000000E+00   0.00000000000000E+00   6.35878152163116E-10
      6.47482571338782E-11   7.00626409296995E-10   6.87082541827318E-30   0.00000000000000E+00   0.00000000000000E+00
      0.00000000000000E+00   0.00000000000000E+00  -1.58610593221533E-11  -6.84765349969170E-10  -7.00626409291323E-10
      2.32253253575432E-30
      4.75700000000000E-01
      7.13550000000000E+00   7.13550000000000E+00   0.00000000000000E+00   0.00000000000000E+00   6.59220067735500E-10
      6.66959369284808E-11   7.25916004663981E-10   5.41924258342674E-30   0.00000000000000E+00   0.00000000000000E+00
      0.00000000000000E+00   0.00000000000000E+00  -1.64327513056285E-11  -7.09483253352651E-10  -7.25916004658280E-10
      9.67721889897631E-31
      4.85700000000000E-01
      7.28550000000000E+00   7.28550000000000E+00   0.00000000000000E+00   0.00000000000000E+00   6.82984723666727E-10
      6.86586540673668E-11   7.51643377734094E-10   1.79996271520959E-29   0.00000000000000E+00   0.00000000000000E+00
      0.00000000000000E+00   0.00000000000000E+00  -1.70349800172113E-11  -7.34608397709922E-10  -7.51643377727133E-10
      2.20640590896660E-29
      4.95700000000000E-01
      7.43550000000000E+00   7.43550000000000E+00   0.00000000000000E+00   0.00000000000000E+00   7.07174433699841E-10
      7.06361978438251E-11   7.77810631543666E-10   2.16769703337069E-29   0.00000000000000E+00   0.00000000000000E+00
      0.00000000000000E+00   0.00000000000000E+00  -1.76691018665179E-11  -7.60141529669922E-10  -7.77810631536440E-10
      1.43222839704849E-29
      5.05700000000000E-01
      7.58550000000000E+00   7.58550000000000E+00   0.00000000000000E+00   0.00000000000000E+00   7.31791720628431E-10
      7.26283814044562E-11   8.04420102032887E-10   3.62895708711612E-29   0.00000000000000E+00   0.00000000000000E+00
      0.00000000000000E+00   0.00000000000000E+00  -1.83364594064612E-11  -7.86083642618442E-10  -8.04420102024903E-10
     -2.20640590896660E-29
      5.15700000000000E-01
      7.73550000000000E+00   7.73550000000000E+00   0.00000000000000E+00   0.00000000000000E+00   7.56839323464078E-10
      7.46350416081692E-11   8.31474365072247E-10   5.51601477241650E-30   0.00000000000000E+00   0.00000000000000E+00
      0.00000000000000E+00   0.00000000000000E+00  -1.90383705825725E-11  -8.12435994479216E-10  -8.31474365061788E-10
     -4.02572306197415E-29
      5.25700000000000E-01
      7.88550000000000E+00   7.88550000000000E+00   0.00000000000000E+00   0.00000000000000E+00   7.82320206598951E-10
      7.66560390707412E-11   8.58976245669692E-10  -3.48379880363147E-30   0.00000000000000E+00   0.00000000000000E+00
      0.00000000000000E+00   0.00000000000000E+00  -1.97761169807865E-11  -8.39200128678078E-10  -8.58976245658865E-10
     -6.54179997570799E-29
      5.35700000000000E-01
      8.03550000000000E+00   8.03550000000000E+00   0.00000000000000E+00   0.00000000000000E+00   8.08237570344486E-10
      7.86912582460782E-11   8.86928828590564E-10   1.64512721282597E-29   0.00000000000000E+00   0.00000000000000E+00
      0.00000000000000E+00   0.00000000000000E+00  -2.05509311008932E-11  -8.66377897478681E-10  -8.86928828579574E-10
      1.97415265539117E-29
      5.45700000000000E-01
      8.18550000000000E+00   8.18550000000000E+00   0.00000000000000E+00   0.00000000000000E+00   8.34594862078488E-10
      8.07406075693948E-11   9.15335469647883E-10   5.51601477241650E-30   0.00000000000000E+00   0.00000000000000E+00
      0.00000000000000E+00   0.00000000000000E+00  -2.13639827067830E-11  -8.93971486936041E-10  -9.15335469642824E-10
     -1.81931715300755E-29
      5.55700000000000E-01
      8.33550000000001E+00   8.33550000000001E+00   0.00000000000000E+00   0.00000000000000E+00   8.61395787697163E-10
      8.28040195855007E-11   9.44199807282664E-10  -7.93531949716058E-30   0.00000000000000E+00   0.00000000000000E+00
      0.00000000000000E+00   0.00000000000000E+00  -2.22163643370665E-11  -9.21983442939807E-10  -9.44199807276874E-10
     -2.32253253575432E-30
      5.65700000000000E-01
      8.48550000000001E+00   8.48550000000001E+00   0.00000000000000E+00   0.00000000000000E+00   8.88644323176073E-10
      8.48814511604047E-11   9.73525774336477E-10   4.04507749977210E-29   0.00000000000000E+00   0.00000000000000E+00
      0.00000000000000E+00   0.00000000000000E+00  -2.31090761025441E-11  -9.50416698222314E-10  -9.73525774324858E-10
      8.01273724835239E-29
      5.75700000000000E-01
      8.63550000000000E+00   8.63550000000000E+00   0.00000000000000E+00   0.00000000000000E+00   9.16344742971727E-10
      8.69728847008552E-11   1.00331762767258E-09   1.21932958127102E-29   0.00000000000000E+00   0.00000000000000E+00
      0.00000000000000E+00   0.00000000000000E+00  -2.40430098908287E-11  -9.79274617771138E-10  -1.00331762766197E-09
     -4.56764732031682E-29
      5.85700000000000E-01
      8.78550000000000E+00   8.78550000000000E+00   0.00000000000000E+00   0.00000000000000E+00   9.44505733188660E-10
      8.90786313938184E-11   1.03358436458248E-09  -2.32253253575432E-30   0.00000000000000E+00   0.00000000000000E+00
      0.00000000000000E+00   0.00000000000000E+00  -2.50189191669584E-11  -1.00856544540294E-09  -1.03358436456990E-09
      2.43865916254203E-29
      5.95700000000000E-01
      8.93550000000000E+00   8.93550000000000E+00   0.00000000000000E+00   0.00000000000000E+00   9.73127888800674E-10
      9.11984005990412E-11   1.06432628939972E-09  -4.83860944948816E-31   0.00000000000000E+00   0.00000000000000E+00
      0.00000000000000E+00   0.00000000000000E+00  -2.60374462494501E-11  -1.03828884314193E-09  -1.06432628939138E-09
      3.87088755959053E-31
      6.05700000000000E-01
      9.08550000000001E+00   9.08550000000001E+00   0.00000000000000E+00   0.00000000000000E+00   1.00220453801727E-09
      9.33313891913718E-11   1.09553592720864E-09   2.47736803813794E-29   0.00000000000000E+00   0.00000000000000E+00
      0.00000000000000E+00   0.00000000000000E+00  -2.70991030944198E-11  -1.06843682410823E-09  -1.09553592720265E-09
     -5.65149583700217E-29
      6.15700000000000E-01
      9.23550000000001E+00   9.23550000000001E+00   0.00000000000000E+00   0.00000000000000E+00   1.03173254618583E-09
      9.54770822849367E-11   1.12720962847077E-09  -1.63544999392700E-29   0.00000000000000E+00   0.00000000000000E+00
      0.00000000000000E+00   0.00000000000000E+00  -2.82042186519117E-11  -1.09900540981238E-09  -1.12720962846429E-09
      2.01286153098707E-29
      6.25700000000000E-01
      9.38550000000001E+00   9.38550000000001E+00   0.00000000000000E+00   0.00000000000000E+00   1.06171728750879E-09
      9.76355932188019E-11   1.15935288072759E-09   1.69351330732085E-29   0.00000000000000E+00   0.00000000000000E+00
      0.00000000000000E+00   0.00000000000000E+00  -2.93529081354778E-11  -1.12999997258757E-09  -1.15935288072305E-09
     -2.74833016730927E-29
      6.35700000000000E-01
      9.53550000000001E+00   9.53550000000001E+00   0.00000000000000E+00   0.00000000000000E+00   1.09217506212318E-09
      9.98078039868132E-11   1.19198286610999E-09   1.34513342695771E-29   0.00000000000000E+00   0.00000000000000E+00
      0.00000000000000E+00   0.00000000000000E+00  -3.05450530468393E-11  -1.16143781305770E-09  -1.19198286610453E-09
     -3.32896330124785E-29
      6.45700000000000E-01
      9.68550000000001E+00   9.68550000000001E+00   0.00000000000000E+00   0.00000000000000E+00   1.12312135196845E-09
      1.01994510129250E-10   1.22511586209770E-09   9.87076327695584E-30   0.00000000000000E+00   0.00000000000000E+00
      0.00000000000000E+00   0.00000000000000E+00  -3.17803305856338E-11  -1.19333553150313E-09  -1.22511586208876E-09
      1.58706389943212E-29
      6.55700000000000E-01
      9.83550000000001E+00   9.83550000000001E+00   0.00000000000000E+00   0.00000000000000E+00   1.15455627924971E-09
      1.04195420974687E-10   1.25875170022439E-09  -4.15152690766084E-29   0.00000000000000E+00   0.00000000000000E+00
      0.00000000000000E+00   0.00000000000000E+00  -3.30582525448877E-11  -1.22569344767465E-09  -1.25875170021954E-09
      1.50964614824031E-29
      6.65700000000000E-01
      9.98550000000001E+00   9.98550000000001E+00   0.00000000000000E+00   0.00000000000000E+00   1.18648659922650E-09
      1.06410715192356E-10   1.29289731441886E-09  -2.90316566969289E-31   0.00000000000000E+00   0.00000000000000E+00
      0.00000000000000E+00   0.00000000000000E+00  -3.43780845223859E-11  -1.25851922989058E-09  -1.29289731441296E-09
     -5.88374909057760E-29
      6.75700000000000E-01