DF-ISE text

Info {
  version   = 1.0
  type      = xyplot
  datasets  = [
    "time"
    "ntype OuterVoltage" "ntype InnerVoltage" "ntype QuasiFermiPotential" "ntype DisplacementCurrent" "ntype eCurrent"
    "ntype hCurrent" "ntype TotalCurrent" "ntype Charge" "ptype OuterVoltage" "ptype InnerVoltage"
    "ptype QuasiFermiPotential" "ptype DisplacementCurrent" "ptype eCurrent" "ptype hCurrent" "ptype TotalCurrent"
    "ptype Charge" ]
  functions = [
    Time
    OuterVoltage InnerVoltage QuasiFermiPotential DisplacementCurrent eCurrent
    hCurrent TotalCurrent Charge OuterVoltage InnerVoltage
    QuasiFermiPotential DisplacementCurrent eCurrent hCurrent TotalCurrent
    Charge ]
}

Data {
      0.00000000000000E+00
      0.00000000000000E+00   0.00000000000000E+00   0.00000000000000E+00   0.00000000000000E+00   9.61315200000023E-09
     -9.61315200000022E-09   5.40045597913195E-24  -2.23543756566353E-29   0.00000000000000E+00   0.00000000000000E+00
      0.00000000000000E+00   0.00000000000000E+00   2.43949343248118E-28  -3.48358732606858E-25  -3.48114783263610E-25
     -1.14916974425344E-31
      0.00000000000000E+00
      0.00000000000000E+00   0.00000000000000E+00   0.00000000000000E+00   0.00000000000000E+00   1.43611374789537E-08
     -8.13645399407488E-09   6.22468348487883E-09   2.51607691373384E-30   0.00000000000000E+00   0.00000000000000E+00
      0.00000000000000E+00   0.00000000000000E+00   2.16556574378136E-11   2.82911378317742E-13   2.19385688161313E-11
      6.04826181186020E-32
      0.00000000000000E+00
      0.00000000000000E+00   0.00000000000000E+00   0.00000000000000E+00   0.00000000000000E+00   2.29620339796276E-09
     -2.30161561510065E-09  -5.41221713788599E-12  -8.70949700907868E-31   0.00000000000000E+00   0.00000000000000E+00
      0.00000000000000E+00   0.00000000000000E+00   7.14472937424932E-12  -1.73251223744237E-12   5.41221713680695E-12
     -8.46756653660427E-32
      5.00000000000000E-03
      7.50000000000000E-02   7.50000000000000E-02   0.00000000000000E+00   0.00000000000000E+00   2.30656731514895E-09
     -2.30083025015689E-09   5.73706499206323E-12   1.37416508365464E-29   0.00000000000000E+00   0.00000000000000E+00
      0.00000000000000E+00   0.00000000000000E+00  -1.48409156742602E-12  -4.25297341856716E-12  -5.73706498599319E-12
     -1.27013498049064E-31
      1.30000000000000E-02
      1.95000000000000E-01   1.95000000000000E-01   0.00000000000000E+00   0.00000000000000E+00   2.31262318761935E-09
     -2.30028446613336E-09   1.23387214859978E-11  -9.29013014301726E-30   0.00000000000000E+00   0.00000000000000E+00
      0.00000000000000E+00   0.00000000000000E+00  -3.32241013673029E-12  -9.01631134715835E-12  -1.23387214838886E-11
     -7.01598370175783E-31
      2.30000000000000E-02
      3.45000000000000E-01   3.45000000000000E-01   0.00000000000000E+00   0.00000000000000E+00   2.31910374215186E-09
     -2.29966289578872E-09   1.94408463631397E-11   4.25797631554958E-30   0.00000000000000E+00   0.00000000000000E+00
      0.00000000000000E+00   0.00000000000000E+00  -4.09801248790868E-12  -1.53428338753890E-11  -1.94408463632977E-11
      1.93544377979526E-31
      3.30000000000000E-02
      4.95000000000000E-01   4.95000000000000E-01   0.00000000000000E+00   0.00000000000000E+00   2.32564343686541E-09
     -2.29902397769353E-09   2.66194591718766E-11  -1.01610798439251E-29   0.00000000000000E+00   0.00000000000000E+00
      0.00000000000000E+00   0.00000000000000E+00  -4.59995614414870E-12  -2.20195030265516E-11  -2.66194591707003E-11
     -2.61284910272360E-30
      4.30000000000000E-02
      6.45000000000000E-01   6.45000000000000E-01   0.00000000000000E+00   0.00000000000000E+00   2.33238887621412E-09
     -2.29835821969752E-09   3.40306565165966E-11   4.83860944948816E-31   0.00000000000000E+00   0.00000000000000E+00
      0.00000000000000E+00   0.00000000000000E+00  -4.96950033070362E-12  -2.90611561864500E-11  -3.40306565171536E-11
     -2.56446300822872E-30
      5.30000000000000E-02
      7.95000000000000E-01   7.95000000000000E-01   0.00000000000000E+00   0.00000000000000E+00   2.33940730048111E-09
     -2.29766110519560E-09   4.17461952855090E-11   2.01286153098707E-29   0.00000000000000E+00   0.00000000000000E+00
      0.00000000000000E+00   0.00000000000000E+00  -5.26343913928401E-12  -3.64827561470440E-11  -4.17461952863280E-11
      0.00000000000000E+00
      6.30000000000000E-02
      9.45000000000000E-01   9.45000000000000E-01   0.00000000000000E+00   0.00000000000000E+00   2.34673710737430E-09
     -2.29692999787968E-09   4.98071094946200E-11  -9.67721889897631E-32   0.00000000000000E+00   0.00000000000000E+00
      0.00000000000000E+00   0.00000000000000E+00  -5.51071269245221E-12  -4.42963968007118E-11  -4.98071094931640E-11
     -4.69345116600351E-30
      7.30000000000000E-02
      1.09500000000000E+00   1.09500000000000E+00   0.00000000000000E+00   0.00000000000000E+00   2.35440286305657E-09
     -2.29616319594749E-09   5.82396671090759E-11   7.74177511918105E-31   0.00000000000000E+00   0.00000000000000E+00
      0.00000000000000E+00   0.00000000000000E+00  -5.72769243939298E-12  -5.25119746698977E-11  -5.82396671092907E-11
      5.17731211095233E-30
      8.30000000000000E-02
      1.24500000000000E+00   1.24500000000000E+00   0.00000000000000E+00   0.00000000000000E+00   2.36242177454995E-09
     -2.29535951188788E-09   6.70622626620730E-11   1.59674111833109E-29   0.00000000000000E+00   0.00000000000000E+00
      0.00000000000000E+00   0.00000000000000E+00  -5.92437878220348E-12  -6.11378838797637E-11  -6.70622626619672E-11
      1.79028549631062E-30
      9.30000000000000E-02
      1.39500000000000E+00   1.39500000000000E+00   0.00000000000000E+00   0.00000000000000E+00   2.37080677283079E-09
     -2.29451806823975E-09   7.62887045910409E-11   1.22900680016999E-29   0.00000000000000E+00   0.00000000000000E+00
      0.00000000000000E+00   0.00000000000000E+00  -6.10725886492848E-12  -7.01814457254148E-11  -7.62887045903433E-11
     -4.83860944948816E-31
      1.03000000000000E-01
      1.54500000000000E+00   1.54500000000000E+00   0.00000000000000E+00   0.00000000000000E+00   2.37956809852261E-09
     -2.29363819128314E-09   8.59299072394701E-11  -3.29025442565195E-30   0.00000000000000E+00   0.00000000000000E+00
      0.00000000000000E+00   0.00000000000000E+00  -6.28075191754189E-12  -7.96491553221526E-11  -8.59299072396945E-11
     -2.80639348070313E-30
      1.13000000000000E-01
      1.69500000000000E+00   1.69500000000000E+00   0.00000000000000E+00   0.00000000000000E+00   2.38871417409656E-09
     -2.29271935199502E-09   9.59948221015450E-11  -1.17094348677613E-29   0.00000000000000E+00   0.00000000000000E+00
      0.00000000000000E+00   0.00000000000000E+00  -6.44799530078524E-12  -8.95468268008525E-11  -9.59948221016377E-11
      1.91125073254782E-29
      1.23000000000000E-01
      1.84500000000000E+00   1.84500000000000E+00   0.00000000000000E+00   0.00000000000000E+00   2.39825211416201E-09
     -2.29176113114065E-09   1.06490983021358E-10   2.90316566969289E-31   0.00000000000000E+00   0.00000000000000E+00
      0.00000000000000E+00   0.00000000000000E+00  -6.61129853753890E-12  -9.98796844836964E-11  -1.06490983021235E-10
      5.51601477241650E-30
      1.33000000000000E-01
      1.99500000000000E+00   1.99500000000000E+00   0.00000000000000E+00   0.00000000000000E+00   2.40818804221091E-09
     -2.29076319737832E-09   1.17424844832589E-10  -6.67728104029366E-30   0.00000000000000E+00   0.00000000000000E+00
      0.00000000000000E+00   0.00000000000000E+00  -6.77241952138249E-12  -1.10652425311885E-10  -1.17424844833267E-10
      1.08384851668535E-29
      1.43000000000000E-01
      2.14500000000000E+00   2.14500000000000E+00   0.00000000000000E+00   0.00000000000000E+00   2.41852729882380E-09
     -2.28972529251388E-09   1.28802006309917E-10   1.47093727264440E-29   0.00000000000000E+00   0.00000000000000E+00
      0.00000000000000E+00   0.00000000000000E+00  -6.93274032416592E-12  -1.21869265984655E-10  -1.28802006308821E-10
     -8.22563606412987E-30
      1.53000000000000E-01
      2.29500000000000E+00   2.29500000000000E+00   0.00000000000000E+00   0.00000000000000E+00   2.42927458655541E-09
     -2.28864722093437E-09   1.40627365621033E-10   1.16126626787716E-29   0.00000000000000E+00   0.00000000000000E+00
      0.00000000000000E+00   0.00000000000000E+00  -7.09338358799461E-12  -1.33533982032582E-10  -1.40627365620577E-10
      3.77411537060076E-30
      1.63000000000000E-01
      2.44500000000000E+00   2.44500000000000E+00   0.00000000000000E+00   0.00000000000000E+00   2.44043407689154E-09
     -2.28752884205237E-09   1.52905234839174E-10   3.77411537060076E-30   0.00000000000000E+00   0.00000000000000E+00
      0.00000000000000E+00   0.00000000000000E+00  -7.25529223041864E-12  -1.45649942608746E-10  -1.52905234839164E-10
     -4.93538163847792E-30
      1.73000000000000E-01
      2.59500000000000E+00   2.59500000000000E+00   0.00000000000000E+00   0.00000000000000E+00   2.45200949242393E-09
     -2.28637006397468E-09   1.65639428449248E-10  -2.12898815777479E-29   0.00000000000000E+00   0.00000000000000E+00
      0.00000000000000E+00   0.00000000000000E+00  -7.41928561750975E-12  -1.58220142832243E-10  -1.65639428449753E-10
     -2.03221596878503E-30
      1.83000000000000E-01
      2.74500000000000E+00   2.74500000000000E+00   0.00000000000000E+00   0.00000000000000E+00   2.46400417381231E-09
     -2.28517083828222E-09   1.78833335530088E-10   5.32247039443697E-30   0.00000000000000E+00   0.00000000000000E+00
      0.00000000000000E+00   0.00000000000000E+00  -7.58607136275174E-12  -1.71247264167718E-10  -1.78833335530470E-10
      8.99981357604797E-30
      1.93000000000000E-01
      2.89500000000000E+00   2.89500000000000E+00   0.00000000000000E+00   0.00000000000000E+00   2.47642111729731E-09
     -2.28393115686336E-09   1.92489960433949E-10   3.04832395317754E-29   0.00000000000000E+00   0.00000000000000E+00
      0.00000000000000E+00   0.00000000000000E+00  -7.75681041845483E-12  -1.84733150015859E-10  -1.92489960434314E-10
     -2.22576034676455E-30
      2.03000000000000E-01
      3.04500000000000E+00   3.04500000000000E+00   0.00000000000000E+00   0.00000000000000E+00   2.48926305468891E-09
     -2.28265104579461E-09   2.06612008894302E-10   7.74177511918105E-31   0.00000000000000E+00   0.00000000000000E+00
      0.00000000000000E+00   0.00000000000000E+00  -7.93204052549421E-12  -1.98679968369072E-10  -2.06612008894566E-10
     -2.58381744602668E-29
      2.13000000000000E-01
      3.19500000000000E+00   3.19500000000000E+00   0.00000000000000E+00   0.00000000000000E+00   2.50253247407286E-09
     -2.28133056333314E-09   2.21201910739729E-10  -1.44190561594747E-29   0.00000000000000E+00   0.00000000000000E+00
      0.00000000000000E+00   0.00000000000000E+00  -8.11235978837956E-12  -2.13089550951793E-10  -2.21201910740173E-10
     -3.35799495794478E-29
      2.23000000000000E-01
      3.34500000000000E+00   3.34500000000000E+00   0.00000000000000E+00   0.00000000000000E+00   2.51623165343868E-09
     -2.27996979690559E-09   2.36261856533091E-10  -3.61927986821714E-29   0.00000000000000E+00   0.00000000000000E+00
      0.00000000000000E+00   0.00000000000000E+00  -8.29846141755873E-12  -2.27963395115097E-10  -2.36261856532655E-10
      1.46126005374542E-29
      2.33000000000000E-01
      3.49500000000000E+00   3.49500000000000E+00   0.00000000000000E+00   0.00000000000000E+00   2.53036269522364E-09
     -2.27856886018569E-09   2.51793835037948E-10   1.34513342695771E-29   0.00000000000000E+00   0.00000000000000E+00
      0.00000000000000E+00   0.00000000000000E+00  -8.49103849641539E-12  -2.43302796541209E-10  -2.51793835037624E-10
      1.80963993410857E-29
      2.43000000000000E-01
      3.64500000000000E+00   3.64500000000000E+00   0.00000000000000E+00   0.00000000000000E+00   2.54492755413484E-09
     -2.27712789060475E-09   2.67799663530088E-10   3.93862809188336E-29   0.00000000000000E+00   0.00000000000000E+00
      0.00000000000000E+00   0.00000000000000E+00  -8.69080008566941E-12  -2.59108863445310E-10  -2.67799663530979E-10
      6.19342009534484E-30
      2.53000000000000E-01
      3.79500000000000E+00   3.79500000000000E+00   0.00000000000000E+00   0.00000000000000E+00   2.55992806270397E-09
     -2.27564704691099E-09   2.84281015792977E-10  -3.87088755959053E-30   0.00000000000000E+00   0.00000000000000E+00
      0.00000000000000E+00   0.00000000000000E+00  -8.89847772357030E-12  -2.75382538070287E-10  -2.84281015793857E-10
     -1.49029171044235E-29
      2.63000000000000E-01
      3.94500000000000E+00   3.94500000000000E+00   0.00000000000000E+00   0.00000000000000E+00   2.57536595517839E-09
     -2.27412650707716E-09   3.01239448101234E-10   2.70962129171337E-30   0.00000000000000E+00   0.00000000000000E+00
      0.00000000000000E+00   0.00000000000000E+00  -9.11483090159250E-12  -2.92124617200035E-10  -3.01239448101627E-10
      2.70962129171337E-30
      2.73000000000000E-01
      4.09500000000000E+00   4.09500000000000E+00   0.00000000000000E+00   0.00000000000000E+00   2.59124288984813E-09
     -2.27256646614942E-09   3.18676423698712E-10  -2.96122898308675E-29   0.00000000000000E+00   0.00000000000000E+00
      0.00000000000000E+00   0.00000000000000E+00  -9.34065175969365E-12  -3.09335771939648E-10  -3.18676423699341E-10
      0.00000000000000E+00
      2.83000000000000E-01
      4.24500000000000E+00   4.24500000000000E+00   0.00000000000000E+00   0.00000000000000E+00   2.60756047033102E-09
     -2.27096713416112E-09   3.36593336169900E-10   2.12898815777479E-30   0.00000000000000E+00   0.00000000000000E+00
      0.00000000000000E+00   0.00000000000000E+00  -9.57676917031504E-12  -3.27016566999973E-10  -3.36593336170288E-10
     -2.49672247593589E-29
      2.93000000000000E-01
      4.39500000000000E+00   4.39500000000000E+00   0.00000000000000E+00   0.00000000000000E+00   2.62432026644915E-09
     -2.26932873441877E-09   3.54991532030380E-10  -7.16114198524247E-30   0.00000000000000E+00   0.00000000000000E+00
      0.00000000000000E+00   0.00000000000000E+00  -9.82405232524460E-12  -3.45167479704549E-10  -3.54991532029793E-10
     -3.75476093280281E-29
      3.03000000000000E-01
      4.54500000000000E+00   4.54500000000000E+00   0.00000000000000E+00   0.00000000000000E+00   2.64152383422336E-09
     -2.26765150141275E-09   3.73872332810613E-10   8.90304138705821E-30   0.00000000000000E+00   0.00000000000000E+00
      0.00000000000000E+00   0.00000000000000E+00  -1.00834138980836E-11  -3.63788918913560E-10  -3.73872332811644E-10
      1.85802602860345E-29
      3.13000000000000E-01
      4.69500000000000E+00   4.69500000000000E+00   0.00000000000000E+00   0.00000000000000E+00   2.65917273599476E-09
     -2.26593567913621E-09   3.93237056858551E-10   1.33545620805873E-29   0.00000000000000E+00   0.00000000000000E+00
      0.00000000000000E+00   0.00000000000000E+00  -1.03558128231970E-11  -3.82881244035565E-10  -3.93237056858762E-10
     -2.82574791850108E-29
      3.23000000000000E-01
      4.84500000000000E+00   4.84500000000000E+00   0.00000000000000E+00   0.00000000000000E+00   2.67726856027793E-09
     -2.26418151929582E-09   4.13087040982110E-10  -4.04507749977210E-29   0.00000000000000E+00   0.00000000000000E+00
      0.00000000000000E+00   0.00000000000000E+00  -1.06422567068426E-11  -4.02444784275258E-10  -4.13087040982100E-10
      3.48379880363147E-29
      3.33000000000000E-01
      4.99500000000000E+00   4.99500000000000E+00   0.00000000000000E+00   0.00000000000000E+00   2.69581294161878E-09
     -2.26238927950826E-09   4.33423662110523E-10   7.16114198524247E-30   0.00000000000000E+00   0.00000000000000E+00
      0.00000000000000E+00   0.00000000000000E+00  -1.09438038656896E-11  -4.22479858245973E-10  -4.33423662111663E-10
     -3.87088755959053E-31
      3.43000000000000E-01
      5.14500000000000E+00   5.14500000000000E+00   0.00000000000000E+00   0.00000000000000E+00   2.71480758067398E-09
     -2.26055922164431E-09   4.54248359029667E-10   1.33545620805873E-29   0.00000000000000E+00   0.00000000000000E+00
      0.00000000000000E+00   0.00000000000000E+00  -1.12615649708154E-11  -4.42986794059323E-10  -4.54248359030138E-10
      2.30317809795636E-29
      3.53000000000000E-01
      5.29500000000000E+00   5.29500000000000E+00   0.00000000000000E+00   0.00000000000000E+00   2.73425571081754E-09
     -2.25869151776787E-09   4.75564193049668E-10   1.81931715300755E-29   0.00000000000000E+00   0.00000000000000E+00
      0.00000000000000E+00   0.00000000000000E+00  -1.15966994000385E-11  -4.63967493649791E-10  -4.75564193049829E-10
      6.19342009534484E-30
      3.63000000000000E-01
      5.44500000000000E+00   5.44500000000000E+00   0.00000000000000E+00   0.00000000000000E+00   2.75415467159390E-09
     -2.25678672378924E-09   4.97367947804657E-10   1.64512721282597E-30   0.00000000000000E+00   0.00000000000000E+00
      0.00000000000000E+00   0.00000000000000E+00  -1.19504410062339E-11  -4.85417506799273E-10  -4.97367947805507E-10
     -5.80633133938579E-31
      3.73000000000000E-01
      5.59500000000000E+00   5.59500000000000E+00   0.00000000000000E+00   0.00000000000000E+00   2.77449723251142E-09
     -2.25484568772000E-09   5.19651544791421E-10  -6.77405322928342E-31   0.00000000000000E+00   0.00000000000000E+00
      0.00000000000000E+00   0.00000000000000E+00  -1.23240954694207E-11  -5.07327449322143E-10  -5.19651544791564E-10
     -8.51595263109916E-30
      3.83000000000000E-01
      5.74500000000000E+00   5.74500000000000E+00   0.00000000000000E+00   0.00000000000000E+00   2.79528996062161E-09
     -2.25286838523606E-09   5.42421575385549E-10  -4.83860944948816E-30   0.00000000000000E+00   0.00000000000000E+00
      0.00000000000000E+00   0.00000000000000E+00  -1.27189763982924E-11  -5.29702598987699E-10  -5.42421575385992E-10
      4.64506507150863E-30
      3.93000000000000E-01
      5.89500000000000E+00   5.89500000000000E+00   0.00000000000000E+00   0.00000000000000E+00   2.81653988242236E-09
     -2.25085477397460E-09   5.65685108447758E-10   7.16114198524247E-30   0.00000000000000E+00   0.00000000000000E+00
      0.00000000000000E+00   0.00000000000000E+00  -1.31364482625817E-11  -5.52548660186930E-10  -5.65685108449512E-10
     -2.34188697355227E-29
      4.03000000000000E-01
      6.04500000000000E+00   6.04500000000000E+00   0.00000000000000E+00   0.00000000000000E+00   2.83824702662329E-09
     -2.24880526071041E-09   5.89441765912875E-10  -2.32253253575432E-30   0.00000000000000E+00   0.00000000000000E+00
      0.00000000000000E+00   0.00000000000000E+00  -1.35779516273018E-11  -5.75863814285309E-10  -5.89441765912611E-10
     -6.19342009534484E-29
      4.13000000000000E-01
      6.19500000000000E+00   6.19500000000000E+00   0.00000000000000E+00   0.00000000000000E+00   2.86041343433667E-09
     -2.24672013037449E-09   6.13693303962181E-10  -1.79996271520959E-29   0.00000000000000E+00   0.00000000000000E+00
      0.00000000000000E+00   0.00000000000000E+00  -1.40449691400676E-11  -5.99648334822334E-10  -6.13693303962402E-10
      3.79346980839871E-29
      4.23000000000000E-01
      6.34500000000000E+00   6.34500000000000E+00   0.00000000000000E+00   0.00000000000000E+00   2.88304134028538E-09
     -2.24459966144163E-09   6.38441678843747E-10  -3.39670383354069E-29   0.00000000000000E+00   0.00000000000000E+00
      0.00000000000000E+00   0.00000000000000E+00  -1.45390281638536E-11  -6.23902650680561E-10  -6.38441678844415E-10
      5.47730589682059E-29
      4.33000000000000E-01
      6.49500000000000E+00   6.49500000000000E+00   0.00000000000000E+00   0.00000000000000E+00   2.90613319228372E-09
     -2.24244412422717E-09   6.63689068056558E-10  -9.38690233200702E-30   0.00000000000000E+00   0.00000000000000E+00
      0.00000000000000E+00   0.00000000000000E+00  -1.50616959479007E-11  -6.48627372108316E-10  -6.63689068056217E-10
     -3.32896330124785E-29
      4.43000000000000E-01
      6.64500000000000E+00   6.64500000000000E+00   0.00000000000000E+00   0.00000000000000E+00   2.92969167097565E-09
     -2.24025377979626E-09   6.89437891179393E-10   8.12886387514010E-30   0.00000000000000E+00   0.00000000000000E+00
      0.00000000000000E+00   0.00000000000000E+00  -1.56145736234674E-11  -6.73823317555008E-10  -6.89437891178475E-10
      3.48379880363147E-29
      4.53000000000000E-01
      6.79500000000000E+00   6.79500000000000E+00   0.00000000000000E+00   0.00000000000000E+00   2.95371970918436E-09
     -2.23802887887006E-09   7.15690830314302E-10   2.22576034676455E-29   0.00000000000000E+00   0.00000000000000E+00
      0.00000000000000E+00   0.00000000000000E+00  -1.61992889269320E-11  -6.99491541387640E-10  -7.15690830314572E-10
      1.04513964108944E-29
      4.63000000000000E-01
      6.94500000000000E+00   6.94500000000000E+00   0.00000000000000E+00   0.00000000000000E+00   2.97822051041649E-09
     -2.23576966029556E-09   7.42450850120927E-10   2.92252010749085E-29   0.00000000000000E+00   0.00000000000000E+00
      0.00000000000000E+00   0.00000000000000E+00  -1.68174875592386E-11  -7.25633362562416E-10  -7.42450850121655E-10
     -5.41924258342674E-30
      4.73000000000000E-01
      7.09500000000000E+00   7.09500000000000E+00   0.00000000000000E+00   0.00000000000000E+00   3.00319756775461E-09
     -2.23347635032278E-09   7.69721217431837E-10  -1.38384230255361E-29   0.00000000000000E+00   0.00000000000000E+00
      0.00000000000000E+00   0.00000000000000E+00  -1.74708231013393E-11  -7.52250394330951E-10  -7.69721217432290E-10
     -1.45158283484645E-29
      4.83000000000000E-01
      7.24500000000000E+00   7.24500000000000E+00   0.00000000000000E+00   0.00000000000000E+00   3.02865468204104E-09
     -2.23114916155136E-09   7.97505520489681E-10   1.05481685998842E-29   0.00000000000000E+00   0.00000000000000E+00
      0.00000000000000E+00   0.00000000000000E+00  -1.81609454206839E-11  -7.79344575068298E-10  -7.97505520488982E-10
      1.85802602860345E-29
      4.93000000000000E-01
      7.39500000000000E+00   7.39500000000000E+00   0.00000000000000E+00   0.00000000000000E+00   3.05459597986690E-09
     -2.22878829202420E-09   8.25807687842707E-10   1.74189940181574E-29   0.00000000000000E+00   0.00000000000000E+00
      0.00000000000000E+00   0.00000000000000E+00  -1.88894875245559E-11  -8.06918200320185E-10  -8.25807687844741E-10
     -1.93544377979526E-29
      5.03000000000000E-01
      7.54500000000000E+00   7.54500000000000E+00   0.00000000000000E+00   0.00000000000000E+00   3.08102593135064E-09
     -2.22639392433867E-09   8.54632007011967E-10   2.08060206327991E-29   0.00000000000000E+00   0.00000000000000E+00
      0.00000000000000E+00   0.00000000000000E+00  -1.96580508425442E-11  -8.34973956170379E-10  -8.54632007012923E-10
     -4.41281181793320E-29
      5.13000000000000E-01
      7.69500000000000E+00   7.69500000000000E+00   0.00000000000000E+00   0.00000000000000E+00   3.10794936681900E-09
     -2.22396622381332E-09   8.83983143005676E-10  -2.86445679409699E-29   0.00000000000000E+00   0.00000000000000E+00
      0.00000000000000E+00   0.00000000000000E+00  -2.04681889538781E-11  -8.63514954052754E-10  -8.83983143006632E-10
      5.80633133938579E-30
      5.23000000000000E-01
      7.84500000000000E+00   7.84500000000000E+00   0.00000000000000E+00   0.00000000000000E+00   3.13537149593246E-09
     -2.22150533894606E-09   9.13866156986408E-10  -2.22576034676455E-29   0.00000000000000E+00   0.00000000000000E+00
      0.00000000000000E+00   0.00000000000000E+00  -2.13213898161992E-11  -8.92544767171227E-10  -9.13866156987426E-10
      1.89673490419936E-29
      5.33000000000000E-01
      7.99500000000000E+00   7.99500000000000E+00   0.00000000000000E+00   0.00000000000000E+00   3.16329792536687E-09
     -2.21901140009640E-09   9.44286525270470E-10  -3.21283667446014E-29   0.00000000000000E+00   0.00000000000000E+00
      0.00000000000000E+00   0.00000000000000E+00  -2.22190565987021E-11  -9.22067468671941E-10  -9.44286525270643E-10
      4.25797631554958E-29
      5.43000000000000E-01
      8.14500000000000E+00   8.14500000000000E+00   0.00000000000000E+00   0.00000000000000E+00   3.19173467809464E-09
     -2.21648451904877E-09   9.75250159045862E-10   1.59674111833109E-29   0.00000000000000E+00   0.00000000000000E+00
      0.00000000000000E+00   0.00000000000000E+00  -2.31624872779345E-11  -9.52087671768459E-10  -9.75250159046393E-10
      4.25797631554958E-30
      5.53000000000000E-01
      8.29500000000000E+00   8.29500000000000E+00   0.00000000000000E+00   0.00000000000000E+00   3.22068836193924E-09
     -2.21392477896504E-09   1.00676358297421E-09   7.16114198524247E-30   0.00000000000000E+00   0.00000000000000E+00
      0.00000000000000E+00   0.00000000000000E+00  -2.41528527198616E-11  -9.82610730254074E-10  -1.00676358297394E-09
     -5.92245796617350E-29
      5.63000000000000E-01
      8.44500000000000E+00   8.44500000000000E+00   0.00000000000000E+00   0.00000000000000E+00   3.25017074860309E-09
     -2.21133196894984E-09   1.03883877965326E-09  -3.58057099262124E-29   0.00000000000000E+00   0.00000000000000E+00
      0.00000000000000E+00   0.00000000000000E+00  -2.51911594333684E-11  -1.01364762021973E-09  -1.03883877965310E-09
     -6.73534435368751E-29
      5.73000000000000E-01
      8.59500000000000E+00   8.59500000000000E+00   0.00000000000000E+00   0.00000000000000E+00   3.28018176120214E-09
     -2.20870657624355E-09   1.07147518495860E-09  -1.48061449154338E-29   0.00000000000000E+00   0.00000000000000E+00
      0.00000000000000E+00   0.00000000000000E+00  -2.62782836282115E-11  -1.04519690132961E-09  -1.07147518495783E-09
      2.51607691373384E-29
      5.83000000000000E-01
      8.74500000000000E+00   8.74500000000000E+00   0.00000000000000E+00   0.00000000000000E+00   3.31071531870931E-09
     -2.20604943249495E-09   1.10466588621435E-09  -7.64500293019129E-30   0.00000000000000E+00   0.00000000000000E+00
      0.00000000000000E+00   0.00000000000000E+00  -2.74149285751168E-11  -1.07725095764002E-09  -1.10466588621514E-09
      2.78703904290518E-29
      5.93000000000000E-01
      8.89500000000000E+00   8.89500000000000E+00   0.00000000000000E+00   0.00000000000000E+00   3.34177148454698E-09
     -2.20336100817089E-09   1.13841047637609E-09   4.45152069352910E-30   0.00000000000000E+00   0.00000000000000E+00
      0.00000000000000E+00   0.00000000000000E+00  -2.86015623361418E-11  -1.10980891404040E-09  -1.13841047637654E-09
      1.93544377979526E-30
      6.03000000000000E-01
      9.04500000000001E+00   9.04500000000001E+00   0.00000000000000E+00   0.00000000000000E+00   3.37336256020262E-09
     -2.20064107318283E-09   1.17272148701979E-09  -3.95798252968131E-29   0.00000000000000E+00   0.00000000000000E+00
      0.00000000000000E+00   0.00000000000000E+00  -2.98383777332657E-11  -1.14288310928585E-09  -1.17272148701911E-09
     -2.36124141135022E-29
      6.13000000000000E-01
      9.19500000000001E+00   9.19500000000001E+00   0.00000000000000E+00   0.00000000000000E+00   3.40551337523320E-09
     -2.19788869789803E-09   1.20762467733517E-09  -4.73216004159942E-29   0.00000000000000E+00   0.00000000000000E+00
      0.00000000000000E+00   0.00000000000000E+00  -3.11252738180194E-11  -1.17649940351766E-09  -1.20762467733568E-09
     -5.03215382746768E-30
      6.23000000000000E-01
      9.34500000000000E+00   9.34500000000000E+00   0.00000000000000E+00   0.00000000000000E+00   3.43823316838137E-09
     -2.19510385939121E-09   1.24312930899016E-09   1.06449407888739E-30   0.00000000000000E+00   0.00000000000000E+00
      0.00000000000000E+00   0.00000000000000E+00  -3.24619303502776E-11  -1.21066737864011E-09  -1.24312930899039E-09
      1.04901052864903E-28
      6.33000000000000E-01
      9.49500000000000E+00   9.49500000000000E+00   0.00000000000000E+00   0.00000000000000E+00   3.47152837873368E-09
     -2.19228670016878E-09   1.27924167856490E-09   0.00000000000000E+00   0.00000000000000E+00   0.00000000000000E+00
      0.00000000000000E+00   0.00000000000000E+00  -3.38477517252902E-11  -1.24539392684001E-09  -1.27924167856530E-09
      3.01929229648061E-29
      6.43000000000000E-01
      9.64500000000000E+00   9.64500000000000E+00   0.00000000000000E+00   0.00000000000000E+00   3.50540958370530E-09
     -2.18943713592495E-09   1.31597244778034E-09   1.28707011356385E-29   0.00000000000000E+00   0.00000000000000E+00
      0.00000000000000E+00   0.00000000000000E+00  -3.52818346284524E-11  -1.28069061315232E-09  -1.31597244778078E-09
     -5.76762246378988E-29
      6.53000000000000E-01
      9.79500000000001E+00   9.79500000000001E+00   0.00000000000000E+00   0.00000000000000E+00   3.53988813269403E-09
     -2.18655504840953E-09   1.35333308428451E-09   1.03546242219047E-29   0.00000000000000E+00   0.00000000000000E+00
      0.00000000000000E+00   0.00000000000000E+00  -3.67629726717543E-11  -1.31657011161318E-09  -1.35333308428494E-09
      2.51607691373384E-29
      6.63000000000000E-01
      9.94500000000001E+00   9.94500000000001E+00   0.00000000000000E+00   0.00000000000000E+00   3.57497623119865E-09
     -2.18364028214144E-09   1.39133594905722E-09  -2.40962750584510E-29   0.00000000000000E+00   0.00000000000000E+00
      0.00000000000000E+00   0.00000000000000E+00  -3.82896540652791E-11  -1.35304629499173E-09  -1.39133594905700E-09
      3.67734318161100E-29
      6.73000000000000E-01
      1.00950000000000E+01   1.00950000000000E+01   0.00000000000000E+00   0.00000000000000E+00   3.61068703876462E-09
     -2.18069263979009E-09   1.42999439897453E-09  -1.50964614824031E-29   0.00000000000000E+00   0.00000000000000E+00
      0.00000000000000E+00   0.00000000000000E+00  -3.98600634153650E-11  -1.39013433556107E-09  -1.42999439897643E-09
     -9.79334552576403E-29
      6.83000000000000E-01