DF-ISE text

Info {
  version   = 1.0
  type      = xyplot
  datasets  = [
    "time"
    "ntype OuterVoltage" "ntype InnerVoltage" "ntype QuasiFermiPotential" "ntype DisplacementCurrent" "ntype eCurrent"
    "ntype hCurrent" "ntype TotalCurrent" "ntype Charge" "ptype OuterVoltage" "ptype InnerVoltage"
    "ptype QuasiFermiPotential" "ptype DisplacementCurrent" "ptype eCurrent" "ptype hCurrent" "ptype TotalCurrent"
    "ptype Charge" ]
  functions = [
    Time
    OuterVoltage InnerVoltage QuasiFermiPotential DisplacementCurrent eCurrent
    hCurrent TotalCurrent Charge OuterVoltage InnerVoltage
    QuasiFermiPotential DisplacementCurrent eCurrent hCurrent TotalCurrent
    Charge ]
}

Data {
      0.00000000000000E+00
      0.00000000000000E+00   0.00000000000000E+00   0.00000000000000E+00   0.00000000000000E+00  -7.18841207982679E-24
      3.36763676813884E-17   3.36763604929764E-17   4.74183726049839E-30   0.00000000000000E+00   0.00000000000000E+00
      0.00000000000000E+00   0.00000000000000E+00   1.15238071614528E-28  -1.15238071614528E-28   0.00000000000000E+00
      0.00000000000000E+00
      0.00000000000000E+00
      0.00000000000000E+00   0.00000000000000E+00   0.00000000000000E+00   0.00000000000000E+00   6.18214233460661E-25
      3.33044507967744E-17   3.33044514149887E-17  -7.64500293019129E-30   0.00000000000000E+00   0.00000000000000E+00
      0.00000000000000E+00   0.00000000000000E+00   1.13486550712851E-28  -1.13486550712851E-28   0.00000000000000E+00
      0.00000000000000E+00
      0.00000000000000E+00
      0.00000000000000E+00   0.00000000000000E+00   0.00000000000000E+00   0.00000000000000E+00  -2.11203447614709E-25
      6.41543246498518E-19   6.41543035295071E-19  -3.26122276895502E-29   0.00000000000000E+00   0.00000000000000E+00
      0.00000000000000E+00   0.00000000000000E+00   8.42059007612020E-29  -8.42059007612019E-29   1.61017617887148E-43
      0.00000000000000E+00
      1.00000000000000E-01
      1.00000000000000E-02   1.00000000000000E-02   0.00000000000000E+00   0.00000000000000E+00   1.20368185995152E-14
     -1.20367630459369E-14   5.55535783085691E-20   3.19348223666218E-30   0.00000000000000E+00   0.00000000000000E+00
      0.00000000000000E+00   0.00000000000000E+00   8.41624571350002E-29  -8.41624571350000E-29   1.46379652624680E-43
      0.00000000000000E+00
      2.00000000000000E-01
      2.00000000000000E-02   2.00000000000000E-02   0.00000000000000E+00   0.00000000000000E+00   2.66449794234674E-17
     -2.63939421970867E-17   2.51037226380732E-19   1.19997514347306E-29   0.00000000000000E+00   0.00000000000000E+00
      0.00000000000000E+00   0.00000000000000E+00   8.41688964023649E-29  -8.41688964023648E-29   1.61017617887148E-43
      0.00000000000000E+00
      3.00000000000000E-01
      3.00000000000000E-02   3.00000000000000E-02   0.00000000000000E+00   0.00000000000000E+00   1.15277367766810E-17
     -1.15463329358850E-17  -1.85961592039694E-20   1.64512721282597E-30   0.00000000000000E+00   0.00000000000000E+00
      0.00000000000000E+00   0.00000000000000E+00   8.38610115655159E-29  -8.38610115654391E-29   7.67322139058571E-41
      0.00000000000000E+00
      4.00000000000000E-01
      4.00000000000000E-02   4.00000000000000E-02   0.00000000000000E+00   0.00000000000000E+00   1.93659794174600E-23
     -2.13867042682155E-19  -2.13847676702737E-19  -1.16126626787716E-29   0.00000000000000E+00   0.00000000000000E+00
      0.00000000000000E+00   0.00000000000000E+00   8.37243914191273E-29  -8.37243914190412E-29   8.61005116738366E-41
      0.00000000000000E+00
      5.00000000000000E-01
      5.00000000000000E-02   5.00000000000000E-02   0.00000000000000E+00   0.00000000000000E+00   6.27217897625377E-23
     -8.18262532956833E-19  -8.18199811167071E-19  -7.06436979625271E-30   0.00000000000000E+00   0.00000000000000E+00
      0.00000000000000E+00   0.00000000000000E+00   8.39981017997801E-29  -8.39981017997799E-29   1.61017617887148E-43
      0.00000000000000E+00
      6.00000000000000E-01
      6.00000000000000E-02   6.00000000000000E-02   0.00000000000000E+00   0.00000000000000E+00   1.64476319028236E-25
      5.57861865879413E-20   5.57863510642604E-20  -1.69351330732085E-29   0.00000000000000E+00   0.00000000000000E+00
      0.00000000000000E+00   0.00000000000000E+00   8.42139712739184E-29  -8.42139712739182E-29   1.61017617887148E-43
      0.00000000000000E+00
      7.00000000000000E-01
      7.00000000000000E-02   7.00000000000000E-02   0.00000000000000E+00   0.00000000000000E+00   3.71654663167599E-24
      4.92775716230787E-19   4.92779432777418E-19  -3.50315324142943E-29   0.00000000000000E+00   0.00000000000000E+00
      0.00000000000000E+00   0.00000000000000E+00   8.41721160360473E-29  -8.41721160360472E-29   1.46379652624680E-43
      0.00000000000000E+00
      8.00000000000000E-01
      8.00000000000000E-02   8.00000000000000E-02   0.00000000000000E+00   0.00000000000000E+00   3.79277162312762E-24
      3.25416587245954E-19   3.25420380017577E-19  -1.33545620805873E-29   0.00000000000000E+00   0.00000000000000E+00
      0.00000000000000E+00   0.00000000000000E+00   8.41624571350002E-29  -8.41624571350000E-29   1.46379652624680E-43
      0.00000000000000E+00
      9.00000000000000E-01
      9.00000000000000E-02   9.00000000000000E-02   0.00000000000000E+00   0.00000000000000E+00  -8.41921666521540E-26
      1.30168237437463E-19   1.30168153245296E-19  -4.06443193757005E-30   0.00000000000000E+00   0.00000000000000E+00
      0.00000000000000E+00   0.00000000000000E+00   8.41624571350002E-29  -8.41624571350000E-29   1.46379652624680E-43
      0.00000000000000E+00
      1.00000000000000E+00
      1.00000000000000E-01   1.00000000000000E-01   0.00000000000000E+00   0.00000000000000E+00  -8.32862645725352E-26
     -1.48763517594794E-19  -1.48763600881058E-19  -7.06436979625271E-30   0.00000000000000E+00   0.00000000000000E+00
      0.00000000000000E+00   0.00000000000000E+00   8.41624571350002E-29  -8.41624571350000E-29   1.46379652624680E-43
      0.00000000000000E+00
}
