DF-ISE text

Info {
  version   = 1.0
  type      = xyplot
  datasets  = [
    "time"
    "ntype OuterVoltage" "ntype InnerVoltage" "ntype QuasiFermiPotential" "ntype DisplacementCurrent" "ntype eCurrent"
    "ntype hCurrent" "ntype TotalCurrent" "ntype Charge" "ptype OuterVoltage" "ptype InnerVoltage"
    "ptype QuasiFermiPotential" "ptype DisplacementCurrent" "ptype eCurrent" "ptype hCurrent" "ptype TotalCurrent"
    "ptype Charge" ]
  functions = [
    Time
    OuterVoltage InnerVoltage QuasiFermiPotential DisplacementCurrent eCurrent
    hCurrent TotalCurrent Charge OuterVoltage InnerVoltage
    QuasiFermiPotential DisplacementCurrent eCurrent hCurrent TotalCurrent
    Charge ]
}

Data {
      0.00000000000000E+00
      0.00000000000000E+00   0.00000000000000E+00   0.00000000000000E+00   0.00000000000000E+00  -2.78528229116666E-24
      2.78528228759292E-24  -3.57374280648983E-33  -2.23543756566353E-29   0.00000000000000E+00   0.00000000000000E+00
      0.00000000000000E+00   0.00000000000000E+00   2.43949343248118E-28  -3.48358732606858E-25  -3.48114783263610E-25
     -1.14916974425344E-31
      0.00000000000000E+00
      0.00000000000000E+00   0.00000000000000E+00   0.00000000000000E+00   0.00000000000000E+00   6.31264186465798E-22
     -4.21861075011044E-22   2.09403111454754E-22  -1.65480443172495E-29   0.00000000000000E+00   0.00000000000000E+00
      0.00000000000000E+00   0.00000000000000E+00  -1.47507550305629E-25  -3.32935488677786E-25  -4.80443038983414E-25
      2.72171781533709E-31
      0.00000000000000E+00
      0.00000000000000E+00   0.00000000000000E+00   0.00000000000000E+00   0.00000000000000E+00   7.83583853487990E-24
      1.08994945087079E-25   7.94483347996697E-24   2.09995650107786E-29   0.00000000000000E+00   0.00000000000000E+00
      0.00000000000000E+00   0.00000000000000E+00   5.31565942369918E-28  -5.89214036955841E-27  -5.36057442718849E-27
      7.86274035541826E-32
      1.00000000000000E-02
      2.00000000000000E-02   2.00000000000000E-02   0.00000000000000E+00   0.00000000000000E+00   1.51116403404841E-13
      1.94874811143135E-14   1.70603884519154E-13  -1.96447543649219E-29   0.00000000000000E+00   0.00000000000000E+00
      0.00000000000000E+00   0.00000000000000E+00  -7.89359982386157E-14  -9.16678862479049E-14  -1.70603884486521E-13
      2.08665032509177E-31
      2.00000000000000E-02
      4.00000000000000E-02   4.00000000000000E-02   0.00000000000000E+00   0.00000000000000E+00   3.75619400220955E-13
      4.84341885647526E-14   4.24053588785708E-13   5.77729968268886E-29   0.00000000000000E+00   0.00000000000000E+00
      0.00000000000000E+00   0.00000000000000E+00  -1.94509923682687E-13  -2.29543665119623E-13  -4.24053588802310E-13
     -6.35067490245321E-32
      3.00000000000000E-02
      6.00000000000000E-02   6.00000000000000E-02   0.00000000000000E+00   0.00000000000000E+00   6.98165627740249E-13
      9.00151460088622E-14   7.88180773749111E-13   4.45152069352910E-30   0.00000000000000E+00   0.00000000000000E+00
      0.00000000000000E+00   0.00000000000000E+00  -3.56206654035227E-13  -4.31974119722396E-13  -7.88180773757623E-13
      9.82842544427282E-32
      4.00000000000000E-02
      8.00000000000000E-02   8.00000000000000E-02   0.00000000000000E+00   0.00000000000000E+00   1.13716497505975E-12
      1.46596790528474E-13   1.28376176558822E-12  -1.39351952145259E-29   0.00000000000000E+00   0.00000000000000E+00
      0.00000000000000E+00   0.00000000000000E+00  -5.67419596178758E-13  -7.16342169390949E-13  -1.28376176556971E-12
      5.74584872126719E-32
      5.00000000000000E-02
      1.00000000000000E-01   1.00000000000000E-01   0.00000000000000E+00   0.00000000000000E+00   1.69704742866754E-12
      2.18740121275613E-13   1.91578754994315E-12   2.12898815777479E-29   0.00000000000000E+00   0.00000000000000E+00
      0.00000000000000E+00   0.00000000000000E+00  -8.21777115869379E-13  -1.09401043406821E-12  -1.91578754993759E-12
     -2.26809817944757E-32
      6.00000000000000E-02
      1.20000000000000E-01   1.20000000000000E-01   0.00000000000000E+00   0.00000000000000E+00   2.36552323754543E-12
      3.04848715884456E-13   2.67037195342989E-12   3.77411537060076E-30   0.00000000000000E+00   0.00000000000000E+00
      0.00000000000000E+00   0.00000000000000E+00  -1.10399900393121E-12  -1.56637294949715E-12  -2.67037195342835E-12
     -6.50188144774971E-32
      7.00000000000000E-02
      1.40000000000000E-01   1.40000000000000E-01   0.00000000000000E+00   0.00000000000000E+00   3.11816154629335E-12
      4.01761177505378E-13   3.51992272379872E-12  -4.35474850453934E-30   0.00000000000000E+00   0.00000000000000E+00
      0.00000000000000E+00   0.00000000000000E+00  -1.39537706839041E-12  -2.12454565538092E-12  -3.51992272377133E-12
     -2.87292436063359E-32
      8.00000000000000E-02
      1.60000000000000E-01   1.60000000000000E-01   0.00000000000000E+00   0.00000000000000E+00   3.92693026960437E-12
      5.05853991612820E-13   4.43278426121719E-12  -5.99987571736531E-30   0.00000000000000E+00   0.00000000000000E+00
      0.00000000000000E+00   0.00000000000000E+00  -1.67991735196874E-12  -2.75286690924865E-12  -4.43278426121739E-12
     -1.33061759860924E-31
      9.00000000000000E-02
      1.80000000000000E-01   1.80000000000000E-01   0.00000000000000E+00   0.00000000000000E+00   4.76736708281907E-12
      6.13966807772248E-13   5.38133389059132E-12  -5.12892601645745E-30   0.00000000000000E+00   0.00000000000000E+00
      0.00000000000000E+00   0.00000000000000E+00  -1.94746304906479E-12  -3.43387084150719E-12  -5.38133389057198E-12
     -4.65716159513235E-31
      1.00000000000000E-01
      2.00000000000000E-01   2.00000000000000E-01   0.00000000000000E+00   0.00000000000000E+00   5.62180444282060E-12
      7.23817933038888E-13   6.34562237585949E-12  -1.98382987429014E-29   0.00000000000000E+00   0.00000000000000E+00
      0.00000000000000E+00   0.00000000000000E+00  -2.19348315956671E-12  -4.15213921630921E-12  -6.34562237587591E-12
      3.62895708711612E-32
      1.10000000000000E-01
      2.20000000000000E-01   2.20000000000000E-01   0.00000000000000E+00   0.00000000000000E+00   6.47930185897771E-12
      8.33994755596444E-13   7.31329661457416E-12   2.99993785868266E-30   0.00000000000000E+00   0.00000000000000E+00
      0.00000000000000E+00   0.00000000000000E+00  -2.41729022235999E-12  -4.89600639224461E-12  -7.31329661460459E-12
      5.68536610314858E-31
      1.20000000000000E-01
      2.40000000000000E-01   2.40000000000000E-01   0.00000000000000E+00   0.00000000000000E+00   7.33404988753144E-12
      9.43747118643848E-13   8.27779700617529E-12   1.75157662071471E-29   0.00000000000000E+00   0.00000000000000E+00
      0.00000000000000E+00   0.00000000000000E+00  -2.62023381496290E-12  -5.65756319118160E-12  -8.27779700614451E-12
      3.56847446899752E-31
      1.30000000000000E-01
      2.60000000000000E-01   2.60000000000000E-01   0.00000000000000E+00   0.00000000000000E+00   8.18357248454697E-12
      1.05275494974766E-12   9.23632743429462E-12  -8.99981357604797E-30   0.00000000000000E+00   0.00000000000000E+00
      0.00000000000000E+00   0.00000000000000E+00  -2.80446705885153E-12  -6.43186037546018E-12  -9.23632743431171E-12
     -3.62895708711612E-32
      1.40000000000000E-01
      2.80000000000000E-01   2.80000000000000E-01   0.00000000000000E+00   0.00000000000000E+00   9.02731048090040E-12
      1.16094530743827E-12   1.01882557883387E-11  -6.29019228433460E-30   0.00000000000000E+00   0.00000000000000E+00
      0.00000000000000E+00   0.00000000000000E+00  -2.97227592349275E-12  -7.21597986480864E-12  -1.01882557883014E-11
     -1.26408671867878E-30
      1.50000000000000E-01
      3.00000000000000E-01   3.00000000000000E-01   0.00000000000000E+00   0.00000000000000E+00   9.86568563639471E-12
      1.26837158491433E-12   1.11340572213090E-11  -1.60641833723007E-29   0.00000000000000E+00   0.00000000000000E+00
      0.00000000000000E+00   0.00000000000000E+00  -3.12577993668243E-12  -8.00827728463378E-12  -1.11340572213162E-11
     -1.19150757693646E-30
      1.60000000000000E-01
      3.20000000000000E-01   3.20000000000000E-01   0.00000000000000E+00   0.00000000000000E+00   1.06995493828312E-11
      1.37514241688194E-12   1.20746917997131E-11   9.77399108796608E-30   0.00000000000000E+00   0.00000000000000E+00
      0.00000000000000E+00   0.00000000000000E+00  -3.26683279864813E-12  -8.80785900103728E-12  -1.20746917996854E-11
     -6.53212275680901E-31
      1.70000000000000E-01
      3.40000000000000E-01   3.40000000000000E-01   0.00000000000000E+00   0.00000000000000E+00   1.15298865627136E-11
      1.48138350453385E-12   1.30112700672475E-11   1.55803224273519E-29   0.00000000000000E+00   0.00000000000000E+00
      0.00000000000000E+00   0.00000000000000E+00  -3.39701514650816E-12  -9.61425492072330E-12  -1.30112700672315E-11
     -9.19335795402750E-31
      1.80000000000000E-01
      3.60000000000000E-01   3.60000000000000E-01   0.00000000000000E+00   0.00000000000000E+00   1.23576703211872E-11
      1.58721893835800E-12   1.39448892595452E-11   2.13866537667377E-29   0.00000000000000E+00   0.00000000000000E+00
      0.00000000000000E+00   0.00000000000000E+00  -3.51766273136596E-12  -1.04272265281837E-11  -1.39448892595496E-11
      2.38301515387292E-30
      1.90000000000000E-01
      3.80000000000000E-01   3.80000000000000E-01   0.00000000000000E+00   0.00000000000000E+00   1.31837996583495E-11
      1.69276317467162E-12   1.48765628330211E-11  -6.48373666231413E-30   0.00000000000000E+00   0.00000000000000E+00
      0.00000000000000E+00   0.00000000000000E+00  -3.62990369341619E-12  -1.12466591396104E-11  -1.48765628330266E-11
     -1.69351330732086E-30
      2.00000000000000E-01
      4.00000000000000E-01   4.00000000000000E-01   0.00000000000000E+00   0.00000000000000E+00   1.40090791025220E-11
      1.79811843549473E-12   1.58071975380168E-11   6.87082541827318E-30   0.00000000000000E+00   0.00000000000000E+00
      0.00000000000000E+00   0.00000000000000E+00  -3.73469424813549E-12  -1.20725032898642E-11  -1.58071975379997E-11
      3.62895708711612E-31
      2.10000000000000E-01
      4.20000000000000E-01   4.20000000000000E-01   0.00000000000000E+00   0.00000000000000E+00   1.48342182104316E-11
      1.90337465820457E-12   1.67375928686362E-11   3.10638726657140E-29   0.00000000000000E+00   0.00000000000000E+00
      0.00000000000000E+00   0.00000000000000E+00  -3.83284932009904E-12  -1.29047435485518E-11  -1.67375928686508E-11
     -1.23384540961948E-30
      2.20000000000000E-01
      4.40000000000000E-01   4.40000000000000E-01   0.00000000000000E+00   0.00000000000000E+00   1.56598046560665E-11
      2.00864516826875E-12   1.76684498243352E-11   3.58057099262124E-30   0.00000000000000E+00   0.00000000000000E+00
      0.00000000000000E+00   0.00000000000000E+00  -3.92506766268258E-12  -1.37433821675774E-11  -1.76684498302600E-11
      1.08868712613484E-31
      2.30000000000000E-01
      4.60000000000000E-01   4.60000000000000E-01   0.00000000000000E+00   0.00000000000000E+00   1.64864532649291E-11
      2.11392949974408E-12   1.86003827646732E-11  -2.90316566969289E-30   0.00000000000000E+00   0.00000000000000E+00
      0.00000000000000E+00   0.00000000000000E+00  -4.01195211730064E-12  -1.45884306512859E-11  -1.86003827685866E-11
     -6.04826181186020E-32
      2.40000000000000E-01
      4.80000000000000E-01   4.80000000000000E-01   0.00000000000000E+00   0.00000000000000E+00   1.73146086688543E-11
      2.21932240566348E-12   1.95339310745178E-11   9.48367452099679E-30   0.00000000000000E+00   0.00000000000000E+00
      0.00000000000000E+00   0.00000000000000E+00  -4.09402578970852E-12  -1.54399052895898E-11  -1.95339310792983E-11
      2.78220043345569E-30
      2.50000000000000E-01
      5.00000000000000E-01   5.00000000000000E-01   0.00000000000000E+00   0.00000000000000E+00   1.81446933569472E-11
      2.32487666705502E-12   2.04695700240022E-11  -7.45145855221176E-30   0.00000000000000E+00   0.00000000000000E+00
      0.00000000000000E+00   0.00000000000000E+00  -4.17174509957514E-12  -1.62978249308320E-11  -2.04695700304071E-11
      2.15318120502223E-30
      2.60000000000000E-01
      5.20000000000000E-01   5.20000000000000E-01   0.00000000000000E+00   0.00000000000000E+00   1.89770812180004E-11
      2.43063883652799E-12   2.14077200545284E-11   7.83854730817081E-30   0.00000000000000E+00   0.00000000000000E+00
      0.00000000000000E+00   0.00000000000000E+00  -4.24551028695868E-12  -1.71622097725681E-11  -2.14077200595268E-11
     -1.39110021672785E-30
      2.70000000000000E-01
      5.40000000000000E-01   5.40000000000000E-01   0.00000000000000E+00   0.00000000000000E+00   1.98121045908973E-11
      2.53665008470166E-12   2.23487546755990E-11  -1.35481064585668E-29   0.00000000000000E+00   0.00000000000000E+00
      0.00000000000000E+00   0.00000000000000E+00  -4.31567396061395E-12  -1.80330807200923E-11  -2.23487546807062E-11
      8.10467082789266E-31
      2.80000000000000E-01
      5.60000000000000E-01   5.60000000000000E-01   0.00000000000000E+00   0.00000000000000E+00   2.06500601531376E-11
      2.64294697308634E-12   2.32930071262240E-11  -2.70962129171337E-30   0.00000000000000E+00   0.00000000000000E+00
      0.00000000000000E+00   0.00000000000000E+00  -4.38254809990446E-12  -1.89104590312603E-11  -2.32930071311647E-11
      2.63704214997105E-30
      2.90000000000000E-01
      5.80000000000000E-01   5.80000000000000E-01   0.00000000000000E+00   0.00000000000000E+00   2.14912138560351E-11
      2.74956208379388E-12   2.42407759398289E-11   2.57414022712770E-29   0.00000000000000E+00   0.00000000000000E+00
      0.00000000000000E+00   0.00000000000000E+00  -4.44640983231543E-12  -1.97943661117607E-11  -2.42407759440761E-11
      1.37900369310412E-30
      3.00000000000000E-01
      6.00000000000000E-01   6.00000000000000E-01   0.00000000000000E+00   0.00000000000000E+00   2.23358050592411E-11
      2.85652456147787E-12   2.51923296207190E-11  -1.67415886952290E-29   0.00000000000000E+00   0.00000000000000E+00
      0.00000000000000E+00   0.00000000000000E+00  -4.50750623406216E-12  -2.06848233908164E-11  -2.51923296248786E-11
      4.04023889032261E-30
      3.10000000000000E-01
      6.20000000000000E-01   6.20000000000000E-01   0.00000000000000E+00   0.00000000000000E+00   2.31840500251471E-11
      2.96386055571175E-12   2.61479105808588E-11   1.33545620805873E-29   0.00000000000000E+00   0.00000000000000E+00
      0.00000000000000E+00   0.00000000000000E+00  -4.56605834515317E-12  -2.15818522420636E-11  -2.61479105872168E-11
     -2.41930472474408E-32
      3.20000000000000E-01
      6.40000000000000E-01   6.40000000000000E-01   0.00000000000000E+00   0.00000000000000E+00   2.40361448654167E-11
      3.07159360583423E-12   2.71077384712509E-11   6.09664790635508E-30   0.00000000000000E+00   0.00000000000000E+00
      0.00000000000000E+00   0.00000000000000E+00  -4.62226454783041E-12  -2.24854739304433E-11  -2.71077384782737E-11
      4.83860944948816E-32
      3.30000000000000E-01
      6.60000000000000E-01   6.60000000000000E-01   0.00000000000000E+00   0.00000000000000E+00   2.48922680353792E-11
      3.17974495760186E-12   2.80720129929810E-11   5.61278696140626E-30   0.00000000000000E+00   0.00000000000000E+00
      0.00000000000000E+00   0.00000000000000E+00  -4.67630342533005E-12  -2.33957095754974E-11  -2.80720130008274E-11
      1.30642455136180E-30
      3.40000000000000E-01
      6.80000000000000E-01   6.80000000000000E-01   0.00000000000000E+00   0.00000000000000E+00   2.57525824619560E-11
      3.28833384858952E-12   2.90409163105455E-11   1.03546242219047E-29   0.00000000000000E+00   0.00000000000000E+00
      0.00000000000000E+00   0.00000000000000E+00  -4.72833619344413E-12  -2.43125801248051E-11  -2.90409163182493E-11
     -1.93544377979526E-30
      3.50000000000000E-01
      7.00000000000000E-01   7.00000000000000E-01   0.00000000000000E+00   0.00000000000000E+00   2.66172373769045E-11
      3.39737772934733E-12   3.00146151062518E-11  -1.57738668053314E-29   0.00000000000000E+00   0.00000000000000E+00
      0.00000000000000E+00   0.00000000000000E+00  -4.77850877873421E-12  -2.52361063350461E-11  -3.00146151137803E-11
      1.04030103163995E-30
      3.60000000000000E-01
      7.20000000000000E-01   7.20000000000000E-01   0.00000000000000E+00   0.00000000000000E+00   2.74863698751294E-11
      3.50689247949494E-12   3.09932623546244E-11  -3.09671004767242E-30   0.00000000000000E+00   0.00000000000000E+00
      0.00000000000000E+00   0.00000000000000E+00  -4.82695360265913E-12  -2.61663087576756E-11  -3.09932623603348E-11
      8.95142748155309E-31
      3.70000000000000E-01
      7.40000000000000E-01   7.40000000000000E-01   0.00000000000000E+00   0.00000000000000E+00   2.83601062689423E-11
      3.61689257279248E-12   3.19769988417348E-11   2.60317188382463E-29   0.00000000000000E+00   0.00000000000000E+00
      0.00000000000000E+00   0.00000000000000E+00  -4.87379111968643E-12  -2.71032077287927E-11  -3.19769988484791E-11
     -4.74183726049839E-30
      3.80000000000000E-01
      7.60000000000000E-01   7.60000000000000E-01   0.00000000000000E+00   0.00000000000000E+00   2.92385632718557E-11
      3.72739123181386E-12   3.29659545036695E-11  -1.93544377979526E-31   0.00000000000000E+00   0.00000000000000E+00
      0.00000000000000E+00   0.00000000000000E+00  -4.91913114846764E-12  -2.80468233614928E-11  -3.29659545099604E-11
      2.12898815777479E-30
      3.90000000000000E-01
      7.80000000000000E-01   7.80000000000000E-01   0.00000000000000E+00   0.00000000000000E+00   3.01218490033693E-11
      3.83840055818640E-12   3.39602495615557E-11  -9.67721889897631E-30   0.00000000000000E+00   0.00000000000000E+00
      0.00000000000000E+00   0.00000000000000E+00  -4.96307402818153E-12  -2.89971755406000E-11  -3.39602495687815E-11
      5.00796078022024E-30
      4.00000000000000E-01
      8.00000000000000E-01   8.00000000000000E-01   0.00000000000000E+00   0.00000000000000E+00   3.10100638832478E-11
      3.94993165498458E-12   3.49599955382323E-11   1.21932958127102E-29   0.00000000000000E+00   0.00000000000000E+00
      0.00000000000000E+00   0.00000000000000E+00  -5.00571162646488E-12  -2.99542839187600E-11  -3.49599955452249E-11
     -1.20965236237204E-31
      4.10000000000000E-01
      8.20000000000000E-01   8.20000000000000E-01   0.00000000000000E+00   0.00000000000000E+00   3.19033014187564E-11
      4.06199470874716E-12   3.59652961275036E-11   8.70949700907868E-31   0.00000000000000E+00   0.00000000000000E+00
      0.00000000000000E+00   0.00000000000000E+00  -5.04712822088858E-12  -3.09181679143637E-11  -3.59652961352523E-11
     -1.20965236237204E-30
      4.20000000000000E-01
      8.40000000000000E-01   8.40000000000000E-01   0.00000000000000E+00   0.00000000000000E+00   3.28016488696548E-11
      4.17459910363467E-12   3.69762479732894E-11   9.67721889897631E-30   0.00000000000000E+00   0.00000000000000E+00
      0.00000000000000E+00   0.00000000000000E+00  -5.08740127217587E-12  -3.18888467096283E-11  -3.69762479818041E-11
      2.41930472474408E-32
      4.30000000000000E-01
      8.60000000000000E-01   8.60000000000000E-01   0.00000000000000E+00   0.00000000000000E+00   3.37051878798690E-11
      4.28775347091682E-12   3.79929413507858E-11  -2.60317188382463E-29   0.00000000000000E+00   0.00000000000000E+00
      0.00000000000000E+00   0.00000000000000E+00  -5.12660210452224E-12  -3.28663392503965E-11  -3.79929413549188E-11
      6.77405322928342E-31
      4.40000000000000E-01
      8.80000000000000E-01   8.80000000000000E-01   0.00000000000000E+00   0.00000000000000E+00   3.46139949631279E-11
      4.40146578015454E-12   3.90154607432824E-11   4.25797631554958E-30   0.00000000000000E+00   0.00000000000000E+00
      0.00000000000000E+00   0.00000000000000E+00  -5.16479650578712E-12  -3.38506642458246E-11  -3.90154607516117E-11
      4.45152069352910E-30
      4.50000000000000E-01
      9.00000000000000E-01   9.00000000000000E-01   0.00000000000000E+00   0.00000000000000E+00   3.55281420212994E-11
      4.51574339733459E-12   4.00438854186340E-11  -1.28707011356385E-29   0.00000000000000E+00   0.00000000000000E+00
      0.00000000000000E+00   0.00000000000000E+00  -5.20204525843253E-12  -3.48418401685729E-11  -4.00438854270055E-11
     -3.70153622885844E-30
      4.60000000000000E-01
      9.20000000000000E-01   9.20000000000000E-01   0.00000000000000E+00   0.00000000000000E+00   3.64476967433799E-11
      4.63059311534774E-12   4.10782898587276E-11  -7.74177511918105E-31   0.00000000000000E+00   0.00000000000000E+00
      0.00000000000000E+00   0.00000000000000E+00  -5.23840461042068E-12  -3.58398852562148E-11  -4.10782898666355E-11
      1.37900369310412E-30
      4.70000000000000E-01
      9.40000000000001E-01   9.40000000000001E-01   0.00000000000000E+00   0.00000000000000E+00   3.73727229605537E-11
      4.74602123810165E-12   4.21187441986554E-11   4.06443193757005E-30   0.00000000000000E+00   0.00000000000000E+00
      0.00000000000000E+00   0.00000000000000E+00  -5.27392669379685E-12  -3.68448175115560E-11  -4.21187442053529E-11
      3.45960575638403E-30
      4.80000000000000E-01
      9.60000000000001E-01   9.60000000000001E-01   0.00000000000000E+00   0.00000000000000E+00   3.83032810009026E-11
      4.86203359468430E-12   4.31653145955869E-11  -2.90316566969289E-30   0.00000000000000E+00   0.00000000000000E+00
      0.00000000000000E+00   0.00000000000000E+00  -5.30865989772086E-12  -3.78566547044254E-11  -4.31653146021463E-11
     -8.95142748155309E-31
      4.90000000000000E-01
      9.80000000000001E-01   9.80000000000001E-01   0.00000000000000E+00   0.00000000000000E+00   3.92394279795983E-11
      4.97863558918019E-12   4.42180635687785E-11  -2.09027928217888E-29   0.00000000000000E+00   0.00000000000000E+00
      0.00000000000000E+00   0.00000000000000E+00  -5.34264920157781E-12  -3.88754143728723E-11  -4.42180635744501E-11
      5.44343563067418E-30
      5.00000000000000E-01
      1.00000000000000E+00   1.00000000000000E+00   0.00000000000000E+00   0.00000000000000E+00   4.01812180533924E-11
      5.09583223799986E-12   4.52770502913923E-11  -5.12892601645745E-30   0.00000000000000E+00   0.00000000000000E+00
      0.00000000000000E+00   0.00000000000000E+00  -5.37593647310587E-12  -3.99011138247119E-11  -4.52770502978177E-11
     -7.11275589074759E-30
      5.10000000000000E-01
      1.02000000000000E+00   1.02000000000000E+00   0.00000000000000E+00   0.00000000000000E+00   4.11287026778575E-11
      5.21362819091558E-12   4.63423308687731E-11   9.48367452099679E-30   0.00000000000000E+00   0.00000000000000E+00
      0.00000000000000E+00   0.00000000000000E+00  -5.40856073575783E-12  -4.09337701392909E-11  -4.63423308750488E-11
      3.77411537060076E-30
      5.20000000000000E-01
      1.04000000000000E+00   1.04000000000000E+00   0.00000000000000E+00   0.00000000000000E+00   4.20819308029142E-11
      5.33202776847822E-12   4.74139585713924E-11  -9.96753546594560E-30   0.00000000000000E+00   0.00000000000000E+00
      0.00000000000000E+00   0.00000000000000E+00  -5.44055840893254E-12  -4.19734001690790E-11  -4.74139585780115E-11
      3.58057099262124E-30
      5.30000000000000E-01
      1.06000000000000E+00   1.06000000000000E+00   0.00000000000000E+00   0.00000000000000E+00   4.30409490756433E-11
      5.45103498190032E-12   4.84919840575436E-11  -1.06449407888739E-29   0.00000000000000E+00   0.00000000000000E+00
      0.00000000000000E+00   0.00000000000000E+00  -5.47196352425007E-12  -4.30200205414909E-11  -4.84919840657409E-11
      1.59674111833109E-30
      5.40000000000000E-01
      1.08000000000000E+00   1.08000000000000E+00   0.00000000000000E+00   0.00000000000000E+00   4.40058020177992E-11
      5.57065355558215E-12   4.95764555733814E-11  -3.11606448547037E-29   0.00000000000000E+00   0.00000000000000E+00
      0.00000000000000E+00   0.00000000000000E+00  -5.50280792060703E-12  -4.40736476606630E-11  -4.95764555812701E-11
     -2.41930472474408E-31
      5.50000000000000E-01
      1.10000000000000E+00   1.10000000000000E+00   0.00000000000000E+00   0.00000000000000E+00   4.49765321739905E-11
      5.69088694610338E-12   5.06674191200939E-11  -1.14191183007920E-29   0.00000000000000E+00   0.00000000000000E+00
      0.00000000000000E+00   0.00000000000000E+00  -5.53312142040828E-12  -4.51342977093526E-11  -5.06674191297609E-11
     -7.79016121367593E-30
      5.60000000000000E-01
      1.12000000000000E+00   1.12000000000000E+00   0.00000000000000E+00   0.00000000000000E+00   4.59531802605237E-11
      5.81173837194422E-12   5.17649186324679E-11  -1.37416508365464E-29   0.00000000000000E+00   0.00000000000000E+00
      0.00000000000000E+00   0.00000000000000E+00  -5.56293198904765E-12  -4.62019866504474E-11  -5.17649186394950E-11
      3.87088755959053E-31
      5.70000000000000E-01
      1.14000000000000E+00   1.14000000000000E+00   0.00000000000000E+00   0.00000000000000E+00   4.69357852885303E-11
      5.93321081410984E-12   5.28689961026401E-11   4.83860944948816E-30   0.00000000000000E+00   0.00000000000000E+00
      0.00000000000000E+00   0.00000000000000E+00  -5.59226587949658E-12  -4.72767302292238E-11  -5.28689961087204E-11
     -1.93544377979526E-31
      5.80000000000000E-01
      1.16000000000000E+00   1.16000000000000E+00   0.00000000000000E+00   0.00000000000000E+00   4.79243846967924E-11
      6.05530703516927E-12   5.39796917319617E-11  -2.78703904290518E-29   0.00000000000000E+00   0.00000000000000E+00
      0.00000000000000E+00   0.00000000000000E+00  -5.62114776356352E-12  -4.83585439749834E-11  -5.39796917385469E-11
     -4.40313459903422E-30
      5.90000000000000E-01
      1.18000000000000E+00   1.18000000000000E+00   0.00000000000000E+00   0.00000000000000E+00   4.89190144362320E-11
      6.17802961111192E-12   5.50970440473440E-11   3.38702661464171E-30   0.00000000000000E+00   0.00000000000000E+00
      0.00000000000000E+00   0.00000000000000E+00  -5.64960085124683E-12  -4.94474432025489E-11  -5.50970440537958E-11
      3.38702661464171E-30
      6.00000000000000E-01
      1.20000000000000E+00   1.20000000000000E+00   0.00000000000000E+00   0.00000000000000E+00   4.99197090870070E-11
      6.30138091878797E-12   5.62210900057950E-11  -1.85802602860345E-29   0.00000000000000E+00   0.00000000000000E+00
      0.00000000000000E+00   0.00000000000000E+00  -5.67764699944676E-12  -5.05434430145739E-11  -5.62210900140207E-11
     -6.96759760726295E-30
      6.10000000000000E-01
      1.22000000000000E+00   1.22000000000000E+00   0.00000000000000E+00   0.00000000000000E+00   5.09265019485377E-11
      6.42536315764377E-12   5.73518651061815E-11  -1.20965236237204E-29   0.00000000000000E+00   0.00000000000000E+00
      0.00000000000000E+00   0.00000000000000E+00  -5.70530681108779E-12  -5.16465583030657E-11  -5.73518651141535E-11
     -2.41930472474408E-30
      6.20000000000000E-01
      1.24000000000000E+00   1.24000000000000E+00   0.00000000000000E+00   0.00000000000000E+00   5.19394251034747E-11
      6.54997836760509E-12   5.84894034710797E-11   1.93544377979526E-30   0.00000000000000E+00   0.00000000000000E+00
      0.00000000000000E+00   0.00000000000000E+00  -5.73259972564596E-12  -5.27568037510692E-11  -5.84894034767151E-11
     -3.04832395317754E-30
      6.30000000000000E-01
      1.26000000000000E+00   1.26000000000000E+00   0.00000000000000E+00   0.00000000000000E+00   5.29585094979332E-11
      6.67522842901396E-12   5.96337379269472E-11   5.80633133938579E-30   0.00000000000000E+00   0.00000000000000E+00
      0.00000000000000E+00   0.00000000000000E+00  -5.75954410194129E-12  -5.38741938346279E-11  -5.96337379365692E-11
      1.04997825053893E-29
      6.40000000000000E-01
      1.28000000000000E+00   1.28000000000000E+00   0.00000000000000E+00   0.00000000000000E+00   5.39837850338099E-11
      6.80111507787502E-12   6.07849001116849E-11  -1.25803845686692E-29   0.00000000000000E+00   0.00000000000000E+00
      0.00000000000000E+00   0.00000000000000E+00  -5.78615729393580E-12  -5.49987428241813E-11  -6.07849001181171E-11
      3.67734318161100E-30
      6.50000000000000E-01
      1.30000000000000E+00   1.30000000000000E+00   0.00000000000000E+00   0.00000000000000E+00   5.50152805882748E-11
      6.92763991184924E-12   6.19429205001241E-11   3.48379880363147E-30   0.00000000000000E+00   0.00000000000000E+00
      0.00000000000000E+00   0.00000000000000E+00  -5.81245572024459E-12  -5.61304647865990E-11  -6.19429205068436E-11
     -1.88705768530038E-30
      6.60000000000000E-01
      1.32000000000000E+00   1.32000000000000E+00   0.00000000000000E+00   0.00000000000000E+00   5.60530241142936E-11
      7.05480439112466E-12   6.31078285054183E-11   1.72254496401778E-29   0.00000000000000E+00   0.00000000000000E+00
      0.00000000000000E+00   0.00000000000000E+00  -5.83845492793574E-12  -5.72693735867578E-11  -6.31078285146936E-11
     -4.35474850453934E-31
      6.70000000000000E-01
      1.34000000000000E+00   1.34000000000000E+00   0.00000000000000E+00   0.00000000000000E+00   5.70970426721314E-11
      7.18260986112512E-12   6.42796525332565E-11  -5.25472986214414E-29   0.00000000000000E+00   0.00000000000000E+00
      0.00000000000000E+00   0.00000000000000E+00  -5.86416965116501E-12  -5.84154828889000E-11  -6.42796525400650E-11
     -3.38702661464171E-31
      6.80000000000000E-01
      1.36000000000000E+00   1.36000000000000E+00   0.00000000000000E+00   0.00000000000000E+00   5.81473624757711E-11
      7.31105754133641E-12   6.54584200171075E-11  -1.81931715300755E-29   0.00000000000000E+00   0.00000000000000E+00
      0.00000000000000E+00   0.00000000000000E+00  -5.88961386514778E-12  -5.95688061587524E-11  -6.54584200239002E-11
     -2.51607691373384E-30
      6.90000000000000E-01