DF-ISE text

Info {
  version   = 1.0
  type      = xyplot
  datasets  = [
    "time"
    "ntype OuterVoltage" "ntype InnerVoltage" "ntype QuasiFermiPotential" "ntype DisplacementCurrent" "ntype eCurrent"
    "ntype hCurrent" "ntype TotalCurrent" "ntype Charge" "ptype OuterVoltage" "ptype InnerVoltage"
    "ptype QuasiFermiPotential" "ptype DisplacementCurrent" "ptype eCurrent" "ptype hCurrent" "ptype TotalCurrent"
    "ptype Charge" ]
  functions = [
    Time
    OuterVoltage InnerVoltage QuasiFermiPotential DisplacementCurrent eCurrent
    hCurrent TotalCurrent Charge OuterVoltage InnerVoltage
    QuasiFermiPotential DisplacementCurrent eCurrent hCurrent TotalCurrent
    Charge ]
}

Data {
      0.00000000000000E+00
      0.00000000000000E+00   0.00000000000000E+00   0.00000000000000E+00   0.00000000000000E+00   9.62116296000024E-09
     -9.62116292632389E-09   3.36763437699007E-17   4.74183726049839E-30   0.00000000000000E+00   0.00000000000000E+00
      0.00000000000000E+00   0.00000000000000E+00   1.15238071614528E-28  -1.15238071614528E-28   0.00000000000000E+00
      0.00000000000000E+00
      0.00000000000000E+00
      0.00000000000000E+00   0.00000000000000E+00   0.00000000000000E+00   0.00000000000000E+00   8.04246894834009E-09
     -8.04502665910392E-09  -2.55771076382847E-12   1.07417129778637E-29   0.00000000000000E+00   0.00000000000000E+00
      0.00000000000000E+00   0.00000000000000E+00   1.13486550712851E-28  -1.13486550712851E-28   0.00000000000000E+00
      0.00000000000000E+00
      0.00000000000000E+00
      0.00000000000000E+00   0.00000000000000E+00   0.00000000000000E+00   0.00000000000000E+00   1.94991235648766E-09
     -1.94991235643304E-09   5.46248021605228E-20  -1.79028549631062E-29   0.00000000000000E+00   0.00000000000000E+00
      0.00000000000000E+00   0.00000000000000E+00   8.41624571350002E-29  -8.41624571350000E-29   1.46379652624680E-43
      0.00000000000000E+00
      5.00000000000000E-03
      7.50000000000000E-02   7.50000000000000E-02   0.00000000000000E+00   0.00000000000000E+00   1.94991239414355E-09
     -1.94991239467051E-09  -5.26957052802171E-19  -9.67721889897631E-31   0.00000000000000E+00   0.00000000000000E+00
      0.00000000000000E+00   0.00000000000000E+00   8.41624571350002E-29  -8.41624571350000E-29   1.46379652624680E-43
      0.00000000000000E+00
      1.33333333333333E-02
      2.00000000000000E-01   2.00000000000000E-01   0.00000000000000E+00   0.00000000000000E+00   1.94991231804096E-09
     -1.94991231813379E-09  -9.28359984636698E-20   2.99993785868266E-30   0.00000000000000E+00   0.00000000000000E+00
      0.00000000000000E+00   0.00000000000000E+00   8.38610115655159E-29  -8.38610115654391E-29   7.67322139058571E-41
      0.00000000000000E+00
      2.33333333333333E-02
      3.50000000000000E-01   3.50000000000000E-01   0.00000000000000E+00   0.00000000000000E+00   1.94991231806585E-09
     -1.94991231815302E-09  -8.71687599591688E-20   1.33061759860924E-29   0.00000000000000E+00   0.00000000000000E+00
      0.00000000000000E+00   0.00000000000000E+00   8.38519726184555E-29  -8.38519726183621E-29   9.33609424440207E-41
      0.00000000000000E+00
      3.33333333333333E-02
      5.00000000000000E-01   5.00000000000000E-01   0.00000000000000E+00   0.00000000000000E+00   1.94991231810921E-09
     -1.94991231826165E-09  -1.52435970694968E-19  -1.85318741915396E-29   0.00000000000000E+00   0.00000000000000E+00
      0.00000000000000E+00   0.00000000000000E+00   8.41969824830442E-29  -8.41969824830442E-29   2.92759305249359E-44
      0.00000000000000E+00
      4.33333333333333E-02
      6.50000000000000E-01   6.50000000000000E-01   0.00000000000000E+00   0.00000000000000E+00   1.94991231810967E-09
     -1.94991231740675E-09   7.02920920038624E-19   4.83860944948816E-32   0.00000000000000E+00   0.00000000000000E+00
      0.00000000000000E+00   0.00000000000000E+00   8.41780115549616E-29  -8.41780115549614E-29   1.61017617887148E-43
      0.00000000000000E+00
      5.33333333333333E-02
      8.00000000000000E-01   8.00000000000000E-01   0.00000000000000E+00   0.00000000000000E+00   1.94991231811048E-09
     -1.94991231816068E-09  -5.01969683032325E-20  -1.76125383961369E-29   0.00000000000000E+00   0.00000000000000E+00
      0.00000000000000E+00   0.00000000000000E+00   8.41560607246561E-29  -8.41560607246560E-29   1.46379652624680E-43
      0.00000000000000E+00
      6.33333333333333E-02
      9.50000000000000E-01   9.50000000000000E-01   0.00000000000000E+00   0.00000000000000E+00   1.94991231810995E-09
     -1.94991231773245E-09   3.77499433579694E-19  -2.55478578932975E-29   0.00000000000000E+00   0.00000000000000E+00
      0.00000000000000E+00   0.00000000000000E+00   8.41656767686825E-29  -8.41656767686824E-29   1.61017617887148E-43
      0.00000000000000E+00
      7.33333333333333E-02
      1.10000000000000E+00   1.10000000000000E+00   0.00000000000000E+00   0.00000000000000E+00   1.94991231810926E-09
     -1.94991231835471E-09  -2.45447213955161E-19  -3.48379880363147E-29   0.00000000000000E+00   0.00000000000000E+00
      0.00000000000000E+00   0.00000000000000E+00   8.39829451466342E-29  -8.39829451465436E-29   9.05504531136269E-41
      0.00000000000000E+00
      8.33333333333333E-02
      1.25000000000000E+00   1.25000000000000E+00   0.00000000000000E+00   0.00000000000000E+00   1.94991231811010E-09
     -1.94991231805802E-09   5.20768670295683E-20  -1.62577277502802E-29   0.00000000000000E+00   0.00000000000000E+00
      0.00000000000000E+00   0.00000000000000E+00   8.41645892717815E-29  -8.41645892717814E-29   1.46379652624680E-43
      0.00000000000000E+00
      9.33333333333333E-02
      1.40000000000000E+00   1.40000000000000E+00   0.00000000000000E+00   0.00000000000000E+00   1.94991231811007E-09
     -1.94991231863444E-09  -5.24378875117733E-19  -1.00643076549354E-29   0.00000000000000E+00   0.00000000000000E+00
      0.00000000000000E+00   0.00000000000000E+00   8.41866258161284E-29  -8.41866258161283E-29   1.61017617887148E-43
      0.00000000000000E+00
      1.03333333333333E-01
      1.55000000000000E+00   1.55000000000000E+00   0.00000000000000E+00   0.00000000000000E+00   1.94991231810954E-09
     -1.94991231807606E-09   3.34863373670045E-20  -1.93544377979526E-29   0.00000000000000E+00   0.00000000000000E+00
      0.00000000000000E+00   0.00000000000000E+00   8.41721160360473E-29  -8.41721160360472E-29   1.46379652624680E-43
      0.00000000000000E+00
      1.13333333333333E-01
      1.70000000000000E+00   1.70000000000000E+00   0.00000000000000E+00   0.00000000000000E+00   1.94991231811007E-09
     -1.94991231775116E-09   3.58903233438352E-19  -3.19348223666218E-30   0.00000000000000E+00   0.00000000000000E+00
      0.00000000000000E+00   0.00000000000000E+00   8.41688964023649E-29  -8.41688964023648E-29   1.61017617887148E-43
      0.00000000000000E+00
      1.23333333333333E-01
      1.85000000000000E+00   1.85000000000000E+00   0.00000000000000E+00   0.00000000000000E+00   1.94991231810984E-09
     -1.94991231802057E-09   8.92676471754584E-20  -9.67721889897631E-32   0.00000000000000E+00   0.00000000000000E+00
      0.00000000000000E+00   0.00000000000000E+00   8.41624571350002E-29  -8.41624571350000E-29   1.46379652624680E-43
      0.00000000000000E+00
      1.33333333333333E-01
      2.00000000000000E+00   2.00000000000000E+00   0.00000000000000E+00   0.00000000000000E+00   1.94991231810972E-09
     -1.94991231851324E-09  -4.03511269848781E-19  -9.67721889897631E-32   0.00000000000000E+00   0.00000000000000E+00
      0.00000000000000E+00   0.00000000000000E+00   8.41624571350002E-29  -8.41624571350000E-29   1.46379652624680E-43
      0.00000000000000E+00
      1.43333333333333E-01
      2.15000000000000E+00   2.15000000000000E+00   0.00000000000000E+00   0.00000000000000E+00   1.94991231810939E-09
     -1.94991231878253E-09  -6.73143345815288E-19   6.09664790635508E-30   0.00000000000000E+00   0.00000000000000E+00
      0.00000000000000E+00   0.00000000000000E+00   8.39829451466342E-29  -8.39829451465436E-29   9.05504531136269E-41
      0.00000000000000E+00
      1.53333333333333E-01
      2.30000000000000E+00   2.30000000000000E+00   0.00000000000000E+00   0.00000000000000E+00   1.94991231810934E-09
     -1.94991231805726E-09   5.20776770979652E-20   2.99993785868266E-30   0.00000000000000E+00   0.00000000000000E+00
      0.00000000000000E+00   0.00000000000000E+00   8.41710285391463E-29  -8.41710285391461E-29   1.31741687362212E-43
      0.00000000000000E+00
      1.63333333333333E-01
      2.45000000000000E+00   2.45000000000000E+00   0.00000000000000E+00   0.00000000000000E+00   1.94991231810968E-09
     -1.94991231786235E-09   2.47328732818290E-19  -9.67721889897631E-32   0.00000000000000E+00   0.00000000000000E+00
      0.00000000000000E+00   0.00000000000000E+00   8.41866258161284E-29  -8.41866258161283E-29   1.61017617887148E-43
      0.00000000000000E+00
      1.73333333333333E-01
      2.60000000000000E+00   2.60000000000000E+00   0.00000000000000E+00   0.00000000000000E+00   1.94991231810959E-09
     -1.94991231846661E-09  -3.57021984598021E-19   2.99993785868266E-30   0.00000000000000E+00   0.00000000000000E+00
      0.00000000000000E+00   0.00000000000000E+00   8.41721160360473E-29  -8.41721160360472E-29   1.46379652624680E-43
      0.00000000000000E+00
      1.83333333333333E-01
      2.75000000000000E+00   2.75000000000000E+00   0.00000000000000E+00   0.00000000000000E+00   1.94991231810951E-09
     -1.94991231779710E-09   3.12417728506778E-19  -9.67721889897631E-32   0.00000000000000E+00   0.00000000000000E+00
      0.00000000000000E+00   0.00000000000000E+00   8.41688964023649E-29  -8.41688964023648E-29   1.61017617887148E-43
      0.00000000000000E+00
      1.93333333333333E-01
      2.90000000000000E+00   2.90000000000000E+00   0.00000000000000E+00   0.00000000000000E+00   1.94991231810931E-09
     -1.94991231728552E-09   8.23790145444370E-19  -1.86770324750243E-29   0.00000000000000E+00   0.00000000000000E+00
      0.00000000000000E+00   0.00000000000000E+00   8.41624571350002E-29  -8.41624571350000E-29   1.46379652624680E-43
      0.00000000000000E+00
      2.03333333333333E-01
      3.05000000000000E+00   3.05000000000000E+00   0.00000000000000E+00   0.00000000000000E+00   1.94991231810945E-09
     -1.94991231759248E-09   5.16966209240776E-19  -2.17737425226967E-29   0.00000000000000E+00   0.00000000000000E+00
      0.00000000000000E+00   0.00000000000000E+00   8.41624571350002E-29  -8.41624571350000E-29   1.46379652624680E-43
      0.00000000000000E+00
      2.13333333333333E-01
      3.20000000000000E+00   3.20000000000000E+00   0.00000000000000E+00   0.00000000000000E+00   1.94991231810958E-09
     -1.94991231801101E-09   9.85664223031267E-20  -2.17737425226967E-29   0.00000000000000E+00   0.00000000000000E+00
      0.00000000000000E+00   0.00000000000000E+00   8.41624571350002E-29  -8.41624571350000E-29   1.46379652624680E-43
      0.00000000000000E+00
      2.23333333333333E-01
      3.35000000000000E+00   3.35000000000000E+00   0.00000000000000E+00   0.00000000000000E+00   1.94991231810483E-09
     -1.94991231812714E-09  -2.23022630570212E-20  -1.19029792457409E-29   0.00000000000000E+00   0.00000000000000E+00
      0.00000000000000E+00   0.00000000000000E+00   8.41624571350002E-29  -8.41624571350000E-29   1.46379652624680E-43
      0.00000000000000E+00
      2.33333333333333E-01
      3.50000000000000E+00   3.50000000000000E+00   0.00000000000000E+00   0.00000000000000E+00   1.94991231810527E-09
     -1.94991231743954E-09   6.65730139892734E-19  -1.49996892934133E-29   0.00000000000000E+00   0.00000000000000E+00
      0.00000000000000E+00   0.00000000000000E+00   8.41624571350002E-29  -8.41624571350000E-29   1.46379652624680E-43
      0.00000000000000E+00
      2.43333333333333E-01
      3.65000000000000E+00   3.65000000000000E+00   0.00000000000000E+00   0.00000000000000E+00   1.94991231810498E-09
     -1.94991231759732E-09   5.07666894067510E-19  -1.19029792457409E-29   0.00000000000000E+00   0.00000000000000E+00
      0.00000000000000E+00   0.00000000000000E+00   8.41624571350002E-29  -8.41624571350000E-29   1.46379652624680E-43
      0.00000000000000E+00
      2.53333333333333E-01
      3.80000000000000E+00   3.80000000000000E+00   0.00000000000000E+00   0.00000000000000E+00   1.94991231810448E-09
     -1.94991231763400E-09   4.70475843898821E-19  -8.80626919806845E-30   0.00000000000000E+00   0.00000000000000E+00
      0.00000000000000E+00   0.00000000000000E+00   8.41624571350002E-29  -8.41624571350000E-29   1.46379652624680E-43
      0.00000000000000E+00
      2.63333333333333E-01
      3.95000000000000E+00   3.95000000000000E+00   0.00000000000000E+00   0.00000000000000E+00   1.94991231810440E-09
     -1.94991231882403E-09  -7.19632631066047E-19  -1.19029792457409E-29   0.00000000000000E+00   0.00000000000000E+00
      0.00000000000000E+00   0.00000000000000E+00   8.41624571350002E-29  -8.41624571350000E-29   1.46379652624680E-43
      0.00000000000000E+00
      2.73333333333333E-01
      4.10000000000000E+00   4.10000000000000E+00   0.00000000000000E+00   0.00000000000000E+00   1.94991231810464E-09
     -1.94991231789450E-09   2.10140652900390E-19  -1.19029792457409E-29   0.00000000000000E+00   0.00000000000000E+00
      0.00000000000000E+00   0.00000000000000E+00   8.41624571350002E-29  -8.41624571350000E-29   1.46379652624680E-43
      0.00000000000000E+00
      2.83333333333333E-01
      4.25000000000000E+00   4.25000000000000E+00   0.00000000000000E+00   0.00000000000000E+00   1.94991231810464E-09
     -1.94991231827571E-09  -1.71064573572185E-19  -8.80626919806845E-30   0.00000000000000E+00   0.00000000000000E+00
      0.00000000000000E+00   0.00000000000000E+00   8.41624571350002E-29  -8.41624571350000E-29   1.46379652624680E-43
      0.00000000000000E+00
      2.93333333333333E-01
      4.40000000000000E+00   4.40000000000000E+00   0.00000000000000E+00   0.00000000000000E+00   1.94991231810508E-09
     -1.94991231779266E-09   3.12415568324386E-19  -8.80626919806845E-30   0.00000000000000E+00   0.00000000000000E+00
      0.00000000000000E+00   0.00000000000000E+00   8.41624571350002E-29  -8.41624571350000E-29   1.46379652624680E-43
      0.00000000000000E+00
      3.03333333333333E-01
      4.55000000000000E+00   4.55000000000000E+00   0.00000000000000E+00   0.00000000000000E+00   1.94991231810454E-09
     -1.94991231898224E-09  -8.77695336845673E-19  -1.19029792457409E-29   0.00000000000000E+00   0.00000000000000E+00
      0.00000000000000E+00   0.00000000000000E+00   8.41624571350002E-29  -8.41624571350000E-29   1.46379652624680E-43
      0.00000000000000E+00
      3.13333333333333E-01
      4.70000000000000E+00   4.70000000000000E+00   0.00000000000000E+00   0.00000000000000E+00   1.94991231810520E-09
     -1.94991231748596E-09   6.19238154413985E-19  -1.49996892934133E-29   0.00000000000000E+00   0.00000000000000E+00
      0.00000000000000E+00   0.00000000000000E+00   8.41624571350002E-29  -8.41624571350000E-29   1.46379652624680E-43
      0.00000000000000E+00
      3.23333333333333E-01
      4.85000000000000E+00   4.85000000000000E+00   0.00000000000000E+00   0.00000000000000E+00   1.94991231810490E-09
     -1.94991231728111E-09   8.23790685489968E-19  -1.49996892934133E-29   0.00000000000000E+00   0.00000000000000E+00
      0.00000000000000E+00   0.00000000000000E+00   8.41624571350002E-29  -8.41624571350000E-29   1.46379652624680E-43
      0.00000000000000E+00
      3.33333333333333E-01
      5.00000000000000E+00   5.00000000000000E+00   0.00000000000000E+00   0.00000000000000E+00   1.94991231810434E-09
     -1.94991231797788E-09   1.26461397572137E-19  -1.19029792457409E-29   0.00000000000000E+00   0.00000000000000E+00
      0.00000000000000E+00   0.00000000000000E+00   8.41624571350002E-29  -8.41624571350000E-29   1.46379652624680E-43
      0.00000000000000E+00
      3.43333333333333E-01
      5.15000000000000E+00   5.15000000000000E+00   0.00000000000000E+00   0.00000000000000E+00   1.94991231810492E-09
     -1.94991231833177E-09  -2.26854524110205E-19  -1.19029792457409E-29   0.00000000000000E+00   0.00000000000000E+00
      0.00000000000000E+00   0.00000000000000E+00   8.41624571350002E-29  -8.41624571350000E-29   1.46379652624680E-43
      0.00000000000000E+00
      3.53333333333333E-01
      5.30000000000000E+00   5.30000000000000E+00   0.00000000000000E+00   0.00000000000000E+00   1.94991231810496E-09
     -1.94991231791342E-09   1.91545262827445E-19  -1.49996892934133E-29   0.00000000000000E+00   0.00000000000000E+00
      0.00000000000000E+00   0.00000000000000E+00   8.41624571350002E-29  -8.41624571350000E-29   1.46379652624680E-43
      0.00000000000000E+00
      3.63333333333334E-01
      5.45000000000000E+00   5.45000000000000E+00   0.00000000000000E+00   0.00000000000000E+00   1.94991231810425E-09
     -1.94991231800568E-09   9.85683124627194E-20  -8.80626919806845E-30   0.00000000000000E+00   0.00000000000000E+00
      0.00000000000000E+00   0.00000000000000E+00   8.41624571350002E-29  -8.41624571350000E-29   1.46379652624680E-43
      0.00000000000000E+00
