DF-ISE text

Info {
  version   = 1.0
  type      = xyplot
  datasets  = [
    "time"
    "ntype OuterVoltage" "ntype InnerVoltage" "ntype QuasiFermiPotential" "ntype DisplacementCurrent" "ntype eCurrent"
    "ntype hCurrent" "ntype TotalCurrent" "ntype Charge" "ptype OuterVoltage" "ptype InnerVoltage"
    "ptype QuasiFermiPotential" "ptype DisplacementCurrent" "ptype eCurrent" "ptype hCurrent" "ptype TotalCurrent"
    "ptype Charge" ]
  functions = [
    Time
    OuterVoltage InnerVoltage QuasiFermiPotential DisplacementCurrent eCurrent
    hCurrent TotalCurrent Charge OuterVoltage InnerVoltage
    QuasiFermiPotential DisplacementCurrent eCurrent hCurrent TotalCurrent
    Charge ]
}

Data {
      0.00000000000000E+00
      0.00000000000000E+00   0.00000000000000E+00   0.00000000000000E+00   0.00000000000000E+00  -7.18841207982679E-24
      3.36763676813884E-17   3.36763604929764E-17   4.74183726049839E-30   0.00000000000000E+00   0.00000000000000E+00
      0.00000000000000E+00   0.00000000000000E+00   1.15238071614528E-28  -1.15238071614528E-28   0.00000000000000E+00
      0.00000000000000E+00
      0.00000000000000E+00
      0.00000000000000E+00   0.00000000000000E+00   0.00000000000000E+00   0.00000000000000E+00   6.18214233460661E-25
      3.33044507967744E-17   3.33044514149887E-17  -7.64500293019129E-30   0.00000000000000E+00   0.00000000000000E+00
      0.00000000000000E+00   0.00000000000000E+00   1.13486550712851E-28  -1.13486550712851E-28   0.00000000000000E+00
      0.00000000000000E+00
      0.00000000000000E+00
      0.00000000000000E+00   0.00000000000000E+00   0.00000000000000E+00   0.00000000000000E+00  -2.11203447614709E-25
      6.41543246498518E-19   6.41543035295071E-19  -3.26122276895502E-29   0.00000000000000E+00   0.00000000000000E+00
      0.00000000000000E+00   0.00000000000000E+00   8.42059007612020E-29  -8.42059007612019E-29   1.61017617887148E-43
      0.00000000000000E+00
      2.50000000000000E-03
      3.75000000000000E-02   3.75000000000000E-02   0.00000000000000E+00   0.00000000000000E+00  -1.64161366187501E-17
      1.62826796137447E-17  -1.33457005005449E-19   2.00318431208810E-29   0.00000000000000E+00   0.00000000000000E+00
      0.00000000000000E+00   0.00000000000000E+00   8.41624571350002E-29  -8.41624571350000E-29   1.46379652624680E-43
      0.00000000000000E+00
      7.00000000000000E-03
      1.05000000000000E-01   1.05000000000000E-01   0.00000000000000E+00   0.00000000000000E+00   5.36720306908763E-20
      1.60163384290718E-19   2.13835414981594E-19  -2.16769703337069E-29   0.00000000000000E+00   0.00000000000000E+00
      0.00000000000000E+00   0.00000000000000E+00   8.41721160360473E-29  -8.41721160360472E-29   1.46379652624680E-43
      0.00000000000000E+00
      1.60000000000000E-02
      2.40000000000000E-01   2.40000000000000E-01   0.00000000000000E+00   0.00000000000000E+00   4.38804626008632E-20
      6.76827505110235E-20   1.11563213111887E-19   9.67721889897631E-30   0.00000000000000E+00   0.00000000000000E+00
      0.00000000000000E+00   0.00000000000000E+00   8.41624571350002E-29  -8.41624571350000E-29   1.46379652624680E-43
      0.00000000000000E+00
      2.60000000000000E-02
      3.90000000000000E-01   3.90000000000000E-01   0.00000000000000E+00   0.00000000000000E+00   2.25124424332152E-23
     -4.64908771718291E-19  -4.64886259275858E-19   3.48379880363147E-30   0.00000000000000E+00   0.00000000000000E+00
      0.00000000000000E+00   0.00000000000000E+00   8.41624571350002E-29  -8.41624571350000E-29   1.46379652624680E-43
      0.00000000000000E+00
      3.60000000000000E-02
      5.40000000000000E-01   5.40000000000000E-01   0.00000000000000E+00   0.00000000000000E+00   2.24642549951240E-23
      2.78909287732536E-19   2.78931751987531E-19  -1.10320295448330E-29   0.00000000000000E+00   0.00000000000000E+00
      0.00000000000000E+00   0.00000000000000E+00   8.41624571350002E-29  -8.41624571350000E-29   1.46379652624680E-43
      0.00000000000000E+00
      4.60000000000000E-02
      6.90000000000000E-01   6.90000000000000E-01   0.00000000000000E+00   0.00000000000000E+00   5.90405452466710E-24
     -9.29831544601324E-20  -9.29772504056078E-20  -2.55478578932975E-29   0.00000000000000E+00   0.00000000000000E+00
      0.00000000000000E+00   0.00000000000000E+00   8.41624571350002E-29  -8.41624571350000E-29   1.46379652624680E-43
      0.00000000000000E+00
      5.60000000000000E-02
      8.40000000000000E-01   8.40000000000000E-01   0.00000000000000E+00   0.00000000000000E+00  -3.41596762242928E-24
      6.13653275033516E-19   6.13649859065893E-19  -2.64188075942053E-29   0.00000000000000E+00   0.00000000000000E+00
      0.00000000000000E+00   0.00000000000000E+00   8.41624571350002E-29  -8.41624571350000E-29   1.46379652624680E-43
      0.00000000000000E+00
      6.60000000000000E-02
      9.90000000000000E-01   9.90000000000000E-01   0.00000000000000E+00   0.00000000000000E+00   1.35167773385380E-23
     -6.50975912914701E-20  -6.50840745141316E-20  -2.33220975465329E-29   0.00000000000000E+00   0.00000000000000E+00
      0.00000000000000E+00   0.00000000000000E+00   8.39829451466342E-29  -8.39829451465436E-29   9.05504531136269E-41
      0.00000000000000E+00
      7.60000000000000E-02
      1.14000000000000E+00   1.14000000000000E+00   0.00000000000000E+00   0.00000000000000E+00   1.40622667406350E-23
      3.71770981576033E-20   3.71911604243439E-20  -1.09352573558432E-29   0.00000000000000E+00   0.00000000000000E+00
      0.00000000000000E+00   0.00000000000000E+00   8.41710285391463E-29  -8.41710285391461E-29   1.31741687362212E-43
      0.00000000000000E+00
      8.60000000000000E-02
      1.29000000000000E+00   1.29000000000000E+00   0.00000000000000E+00   0.00000000000000E+00  -3.37304622226370E-24
      6.50872704887553E-20   6.50838974425330E-20  -2.95155176418778E-29   0.00000000000000E+00   0.00000000000000E+00
      0.00000000000000E+00   0.00000000000000E+00   8.41866258161284E-29  -8.41866258161283E-29   1.61017617887148E-43
      0.00000000000000E+00
      9.60000000000000E-02
      1.44000000000000E+00   1.44000000000000E+00   0.00000000000000E+00   0.00000000000000E+00  -1.73636105757159E-24
     -5.76457368352777E-19  -5.76459104713834E-19  -1.09352573558432E-29   0.00000000000000E+00   0.00000000000000E+00
      0.00000000000000E+00   0.00000000000000E+00   8.41721160360473E-29  -8.41721160360472E-29   1.46379652624680E-43
      0.00000000000000E+00
      1.06000000000000E-01
      1.59000000000000E+00   1.59000000000000E+00   0.00000000000000E+00   0.00000000000000E+00  -1.65253283654884E-24
     -6.04350541671180E-19  -6.04352194204016E-19   7.64500293019129E-30   0.00000000000000E+00   0.00000000000000E+00
      0.00000000000000E+00   0.00000000000000E+00   8.41688964023649E-29  -8.41688964023648E-29   1.61017617887148E-43
      0.00000000000000E+00
      1.16000000000000E-01
      1.74000000000000E+00   1.74000000000000E+00   0.00000000000000E+00   0.00000000000000E+00  -1.36594409836371E-24
      4.46292258538684E-19   4.46290892594585E-19  -1.52900058603826E-29   0.00000000000000E+00   0.00000000000000E+00
      0.00000000000000E+00   0.00000000000000E+00   8.41624571350002E-29  -8.41624571350000E-29   1.46379652624680E-43
      0.00000000000000E+00
      1.26000000000000E-01
      1.89000000000000E+00   1.89000000000000E+00   0.00000000000000E+00   0.00000000000000E+00  -3.09048222019750E-24
     -2.97524050414391E-19  -2.97527140896611E-19  -2.90316566969289E-30   0.00000000000000E+00   0.00000000000000E+00
      0.00000000000000E+00   0.00000000000000E+00   8.41624571350002E-29  -8.41624571350000E-29   1.46379652624680E-43
      0.00000000000000E+00
      1.36000000000000E-01
      2.04000000000000E+00   2.04000000000000E+00   0.00000000000000E+00   0.00000000000000E+00   6.56622642517672E-23
     -2.41806641819462E-19  -2.41740979555210E-19   1.93544377979526E-31   0.00000000000000E+00   0.00000000000000E+00
      0.00000000000000E+00   0.00000000000000E+00   8.39829451466342E-29  -8.39829451465436E-29   9.05504531136269E-41
      0.00000000000000E+00
      1.46000000000000E-01
      2.19000000000000E+00   2.19000000000000E+00   0.00000000000000E+00   0.00000000000000E+00  -3.15938167821662E-24
     -1.11569453946774E-19  -1.11572613328452E-19   6.38696447332437E-30   0.00000000000000E+00   0.00000000000000E+00
      0.00000000000000E+00   0.00000000000000E+00   8.41710285391463E-29  -8.41710285391461E-29   1.31741687362212E-43
      0.00000000000000E+00
      1.56000000000000E-01
      2.34000000000000E+00   2.34000000000000E+00   0.00000000000000E+00   0.00000000000000E+00   6.52665676300086E-23
     -1.02340278229267E-19  -1.02275011661637E-19   1.93544377979526E-31   0.00000000000000E+00   0.00000000000000E+00
      0.00000000000000E+00   0.00000000000000E+00   8.41866258161284E-29  -8.41866258161283E-29   1.61017617887148E-43
      0.00000000000000E+00
      1.66000000000000E-01
      2.49000000000000E+00   2.49000000000000E+00   0.00000000000000E+00   0.00000000000000E+00  -2.96904032676065E-24
     -2.04547099968558E-19  -2.04550069008885E-19   1.93544377979526E-31   0.00000000000000E+00   0.00000000000000E+00
      0.00000000000000E+00   0.00000000000000E+00   8.41721160360473E-29  -8.41721160360472E-29   1.46379652624680E-43
      0.00000000000000E+00
      1.76000000000000E-01
      2.64000000000000E+00   2.64000000000000E+00   0.00000000000000E+00   0.00000000000000E+00   6.56082674012452E-23
     -2.32508680217794E-19  -2.32443071950393E-19  -2.90316566969289E-30   0.00000000000000E+00   0.00000000000000E+00
      0.00000000000000E+00   0.00000000000000E+00   8.41688964023649E-29  -8.41688964023648E-29   1.61017617887148E-43
      0.00000000000000E+00
      1.86000000000000E-01
      2.79000000000000E+00   2.79000000000000E+00   0.00000000000000E+00   0.00000000000000E+00  -3.11335461525203E-24
      2.69637112953202E-19   2.69633999598587E-19   1.93544377979526E-31   0.00000000000000E+00   0.00000000000000E+00
      0.00000000000000E+00   0.00000000000000E+00   8.41624571350002E-29  -8.41624571350000E-29   1.46379652624680E-43
      0.00000000000000E+00
      1.96000000000000E-01
      2.94000000000000E+00   2.94000000000000E+00   0.00000000000000E+00   0.00000000000000E+00   6.53898312249115E-23
     -1.95317503081590E-19  -1.95252113250365E-19  -5.99987571736531E-30   0.00000000000000E+00   0.00000000000000E+00
      0.00000000000000E+00   0.00000000000000E+00   8.41624571350002E-29  -8.41624571350000E-29   1.46379652624680E-43
      0.00000000000000E+00
      2.06000000000000E-01
      3.09000000000000E+00   3.09000000000000E+00   0.00000000000000E+00   0.00000000000000E+00  -8.07256840993500E-25
      9.29857001081824E-21   9.29776275397725E-21  -1.83867159080550E-29   0.00000000000000E+00   0.00000000000000E+00
      0.00000000000000E+00   0.00000000000000E+00   8.41624571350002E-29  -8.41624571350000E-29   1.46379652624680E-43
      0.00000000000000E+00
      2.16000000000000E-01
      3.24000000000000E+00   3.24000000000000E+00   0.00000000000000E+00   0.00000000000000E+00   6.67257321383625E-23
      1.39398997617809E-19   1.39465723349948E-19  -2.45801360033998E-29   0.00000000000000E+00   0.00000000000000E+00
      0.00000000000000E+00   0.00000000000000E+00   8.41624571350002E-29  -8.41624571350000E-29   1.46379652624680E-43
      0.00000000000000E+00
      2.26000000000000E-01
      3.39000000000000E+00   3.39000000000000E+00   0.00000000000000E+00   0.00000000000000E+00  -2.14138488403431E-24
      4.18399712795875E-19   4.18397571410991E-19  -2.00318431208810E-29   0.00000000000000E+00   0.00000000000000E+00
      0.00000000000000E+00   0.00000000000000E+00   8.41624571350002E-29  -8.41624571350000E-29   1.46379652624680E-43
      0.00000000000000E+00
      2.36000000000000E-01
      3.54000000000000E+00   3.54000000000000E+00   0.00000000000000E+00   0.00000000000000E+00   6.52959793080757E-23
     -2.04615388506486E-19  -2.04550092527177E-19  -2.00318431208810E-29   0.00000000000000E+00   0.00000000000000E+00
      0.00000000000000E+00   0.00000000000000E+00   8.41624571350002E-29  -8.41624571350000E-29   1.46379652624680E-43
      0.00000000000000E+00
      2.46000000000000E-01
      3.69000000000000E+00   3.69000000000000E+00   0.00000000000000E+00   0.00000000000000E+00  -1.93853777332729E-24
      9.29986195411009E-21   9.29792341633676E-21  -2.31285531685534E-29   0.00000000000000E+00   0.00000000000000E+00
      0.00000000000000E+00   0.00000000000000E+00   8.41624571350002E-29  -8.41624571350000E-29   1.46379652624680E-43
      0.00000000000000E+00
      2.56000000000000E-01
      3.84000000000000E+00   3.84000000000000E+00   0.00000000000000E+00   0.00000000000000E+00  -2.04408334541889E-24
     -2.69632038314304E-19  -2.69634082397649E-19  -2.62252632162258E-29   0.00000000000000E+00   0.00000000000000E+00
      0.00000000000000E+00   0.00000000000000E+00   8.41624571350002E-29  -8.41624571350000E-29   1.46379652624680E-43
      0.00000000000000E+00
      2.66000000000000E-01
      3.99000000000000E+00   3.99000000000000E+00   0.00000000000000E+00   0.00000000000000E+00  -2.30741024418069E-24
     -3.71906634030824E-19  -3.71908941441068E-19  -1.69351330732085E-29   0.00000000000000E+00   0.00000000000000E+00
      0.00000000000000E+00   0.00000000000000E+00   8.39829451466342E-29  -8.39829451465436E-29   9.05504531136269E-41
      0.00000000000000E+00
      2.76000000000000E-01
      4.14000000000000E+00   4.14000000000000E+00   0.00000000000000E+00   0.00000000000000E+00   6.53650912139807E-23
     -4.64951391088691E-19  -4.64886025997477E-19  -2.62252632162258E-29   0.00000000000000E+00   0.00000000000000E+00
      0.00000000000000E+00   0.00000000000000E+00   8.41710285391463E-29  -8.41710285391461E-29   1.31741687362212E-43
      0.00000000000000E+00
      2.86000000000000E-01
      4.29000000000000E+00   4.29000000000000E+00   0.00000000000000E+00   0.00000000000000E+00   6.53726334996964E-23
      2.60271025099137E-19   2.60336397732636E-19  -2.00318431208810E-29   0.00000000000000E+00   0.00000000000000E+00
      0.00000000000000E+00   0.00000000000000E+00   8.41866258161284E-29  -8.41866258161283E-29   1.61017617887148E-43
      0.00000000000000E+00
      2.96000000000000E-01
      4.44000000000000E+00   4.44000000000000E+00   0.00000000000000E+00   0.00000000000000E+00  -2.14633589480660E-24
      5.20674581007156E-19   5.20672434671261E-19  -2.31285531685534E-29   0.00000000000000E+00   0.00000000000000E+00
      0.00000000000000E+00   0.00000000000000E+00   8.41721160360473E-29  -8.41721160360472E-29   1.46379652624680E-43
      0.00000000000000E+00
      3.06000000000000E-01
      4.59000000000000E+00   4.59000000000000E+00   0.00000000000000E+00   0.00000000000000E+00  -2.02927149569601E-24
     -2.97525105442494E-19  -2.97527134713990E-19  -2.31285531685534E-29   0.00000000000000E+00   0.00000000000000E+00
      0.00000000000000E+00   0.00000000000000E+00   8.41688964023649E-29  -8.41688964023648E-29   1.61017617887148E-43
      0.00000000000000E+00
      3.16000000000000E-01
      4.74000000000000E+00   4.74000000000000E+00   0.00000000000000E+00   0.00000000000000E+00   6.53378459558248E-23
     -1.48828791339035E-19  -1.48763453493080E-19  -2.00318431208810E-29   0.00000000000000E+00   0.00000000000000E+00
      0.00000000000000E+00   0.00000000000000E+00   8.41624571350002E-29  -8.41624571350000E-29   1.46379652624680E-43
      0.00000000000000E+00
      3.26000000000000E-01
      4.89000000000000E+00   4.89000000000000E+00   0.00000000000000E+00   0.00000000000000E+00   6.53811875455967E-23
     -1.02340410132319E-19  -1.02275028944774E-19  -1.69351330732085E-29   0.00000000000000E+00   0.00000000000000E+00
      0.00000000000000E+00   0.00000000000000E+00   8.41624571350002E-29  -8.41624571350000E-29   1.46379652624680E-43
      0.00000000000000E+00
      3.36000000000000E-01
      5.04000000000000E+00   5.04000000000000E+00   0.00000000000000E+00   0.00000000000000E+00  -2.14237337191130E-24
      1.85956405247478E-19   1.85954262874106E-19  -2.31285531685534E-29   0.00000000000000E+00   0.00000000000000E+00
      0.00000000000000E+00   0.00000000000000E+00   8.41624571350002E-29  -8.41624571350000E-29   1.46379652624680E-43
      0.00000000000000E+00
      3.46000000000000E-01
      5.19000000000000E+00   5.19000000000000E+00   0.00000000000000E+00   0.00000000000000E+00  -1.98523135998581E-24
      3.71926431892227E-20   3.71906579578627E-20  -2.00318431208810E-29   0.00000000000000E+00   0.00000000000000E+00
      0.00000000000000E+00   0.00000000000000E+00   8.41624571350002E-29  -8.41624571350000E-29   1.46379652624680E-43
      0.00000000000000E+00
      3.56000000000000E-01
      5.34000000000000E+00   5.34000000000000E+00   0.00000000000000E+00   0.00000000000000E+00   6.53083609185115E-23
     -4.74249312656408E-19  -4.74184004295490E-19  -2.31285531685534E-29   0.00000000000000E+00   0.00000000000000E+00
      0.00000000000000E+00   0.00000000000000E+00   8.41624571350002E-29  -8.41624571350000E-29   1.46379652624680E-43
      0.00000000000000E+00
      3.66000000000000E-01
      5.49000000000000E+00   5.49000000000000E+00   0.00000000000000E+00   0.00000000000000E+00   6.53150976965086E-23
     -3.06890200295352E-19  -3.06824885197656E-19  -2.31285531685534E-29   0.00000000000000E+00   0.00000000000000E+00
      0.00000000000000E+00   0.00000000000000E+00   8.41624571350002E-29  -8.41624571350000E-29   1.46379652624680E-43
      0.00000000000000E+00
      3.76000000000000E-01
      5.64000000000000E+00   5.64000000000000E+00   0.00000000000000E+00   0.00000000000000E+00  -2.11349053466220E-24
      1.93642734599613E-24  -1.77063188666068E-25  -1.69351330732085E-29   0.00000000000000E+00   0.00000000000000E+00
      0.00000000000000E+00   0.00000000000000E+00   8.41624571350002E-29  -8.41624571350000E-29   1.46379652624680E-43
      0.00000000000000E+00
      3.86000000000000E-01
      5.79000000000000E+00   5.79000000000000E+00   0.00000000000000E+00   0.00000000000000E+00  -2.02516777576666E-24
      8.36814100697245E-20   8.36793849019487E-20  -2.62252632162258E-29   0.00000000000000E+00   0.00000000000000E+00
      0.00000000000000E+00   0.00000000000000E+00   8.41624571350002E-29  -8.41624571350000E-29   1.46379652624680E-43
      0.00000000000000E+00
      3.96000000000000E-01
      5.94000000000000E+00   5.94000000000000E+00   0.00000000000000E+00   0.00000000000000E+00   6.53186362425340E-23
     -4.64951489648649E-19  -4.64886171012407E-19  -2.31285531685534E-29   0.00000000000000E+00   0.00000000000000E+00
      0.00000000000000E+00   0.00000000000000E+00   8.41624571350002E-29  -8.41624571350000E-29   1.46379652624680E-43
      0.00000000000000E+00
      4.06000000000000E-01
      6.09000000000000E+00   6.09000000000000E+00   0.00000000000000E+00   0.00000000000000E+00   6.53328077821609E-23
     -2.13912953918310E-19  -2.13847621110528E-19  -2.31285531685534E-29   0.00000000000000E+00   0.00000000000000E+00
      0.00000000000000E+00   0.00000000000000E+00   8.41624571350002E-29  -8.41624571350000E-29   1.46379652624680E-43
      0.00000000000000E+00
      4.16000000000000E-01
      6.24000000000000E+00   6.24000000000000E+00   0.00000000000000E+00   0.00000000000000E+00  -2.09321077152820E-24
     -3.81204772287424E-19  -3.81206865498196E-19   1.64512721282597E-30   0.00000000000000E+00   0.00000000000000E+00
      0.00000000000000E+00   0.00000000000000E+00   8.41624571350002E-29  -8.41624571350000E-29   1.46379652624680E-43
      0.00000000000000E+00
      4.26000000000000E-01
      6.39000000000000E+00   6.39000000000000E+00   0.00000000000000E+00   0.00000000000000E+00   1.29999423539630E-22
     -1.58191375891248E-19  -1.58061376467709E-19   1.71286774511881E-29   0.00000000000000E+00   0.00000000000000E+00
      0.00000000000000E+00   0.00000000000000E+00   8.41624571350002E-29  -8.41624571350000E-29   1.46379652624680E-43
      0.00000000000000E+00
      4.36000000000000E-01
      6.54000000000000E+00   6.54000000000000E+00   0.00000000000000E+00   0.00000000000000E+00   6.82847169505230E-23
     -3.25488680347125E-19  -3.25420395630174E-19  -1.69351330732085E-29   0.00000000000000E+00   0.00000000000000E+00
      0.00000000000000E+00   0.00000000000000E+00   8.41624571350002E-29  -8.41624571350000E-29   1.46379652624680E-43
      0.00000000000000E+00
      4.46000000000000E-01
      6.69000000000000E+00   6.69000000000000E+00   0.00000000000000E+00   0.00000000000000E+00   1.27117115448290E-22
     -3.62738323676687E-19  -3.62611206561239E-19  -2.75800738620825E-29   0.00000000000000E+00   0.00000000000000E+00
      0.00000000000000E+00   0.00000000000000E+00   8.41624571350002E-29  -8.41624571350000E-29   1.46379652624680E-43
      0.00000000000000E+00
      4.56000000000000E-01
      6.84000000000000E+00   6.84000000000000E+00   0.00000000000000E+00   0.00000000000000E+00   1.28939380648618E-22
      3.90375357770254E-19   3.90504297150903E-19  -3.06767839097549E-29   0.00000000000000E+00   0.00000000000000E+00
      0.00000000000000E+00   0.00000000000000E+00   8.41624571350002E-29  -8.41624571350000E-29   1.46379652624680E-43
      0.00000000000000E+00
      4.66000000000000E-01
      6.99000000000000E+00   6.99000000000000E+00   0.00000000000000E+00   0.00000000000000E+00   1.28006734831362E-22
     -3.34846103880923E-19  -3.34718097146091E-19  -2.75800738620825E-29   0.00000000000000E+00   0.00000000000000E+00
      0.00000000000000E+00   0.00000000000000E+00   8.41624571350002E-29  -8.41624571350000E-29   1.46379652624680E-43
      0.00000000000000E+00
      4.76000000000000E-01
      7.14000000000000E+00   7.14000000000000E+00   0.00000000000000E+00   0.00000000000000E+00   1.27676116405260E-22
     -7.90434666790752E-19  -7.90306990674347E-19  -2.13866537667377E-29   0.00000000000000E+00   0.00000000000000E+00
      0.00000000000000E+00   0.00000000000000E+00   8.41624571350002E-29  -8.41624571350000E-29   1.46379652624680E-43
      0.00000000000000E+00
      4.86000000000000E-01
      7.29000000000000E+00   7.29000000000000E+00   0.00000000000000E+00   0.00000000000000E+00   1.27730596757824E-22
      2.77651715948453E-20   2.78929021916031E-20  -2.44833638144101E-29   0.00000000000000E+00   0.00000000000000E+00
      0.00000000000000E+00   0.00000000000000E+00   8.41624571350002E-29  -8.41624571350000E-29   1.46379652624680E-43
      0.00000000000000E+00
      4.96000000000000E-01
      7.44000000000000E+00   7.44000000000000E+00   0.00000000000000E+00   0.00000000000000E+00   1.28353251289161E-22
      1.39337307500675E-19   1.39465660751964E-19  -3.68702040050998E-29   0.00000000000000E+00   0.00000000000000E+00
      0.00000000000000E+00   0.00000000000000E+00   8.41624571350002E-29  -8.41624571350000E-29   1.46379652624680E-43
      0.00000000000000E+00
      5.06000000000000E-01
      7.59000000000000E+00   7.59000000000000E+00   0.00000000000000E+00   0.00000000000000E+00   1.27652137488712E-22
     -4.65014384620540E-19  -4.64886732483051E-19  -3.68702040050998E-29   0.00000000000000E+00   0.00000000000000E+00
      0.00000000000000E+00   0.00000000000000E+00   8.38610115655159E-29  -8.38610115654391E-29   7.67322139058571E-41
      0.00000000000000E+00
      5.16000000000000E-01
      7.74000000000000E+00   7.74000000000000E+00   0.00000000000000E+00   0.00000000000000E+00   1.27859715756551E-22
      4.27567187380323E-19   4.27695047096080E-19  -3.37734939574273E-29   0.00000000000000E+00   0.00000000000000E+00
      0.00000000000000E+00   0.00000000000000E+00   8.37243914191273E-29  -8.37243914190412E-29   8.61005116738366E-41
      0.00000000000000E+00
      5.26000000000000E-01
      7.89000000000000E+00   7.89000000000000E+00   0.00000000000000E+00   0.00000000000000E+00   1.27866603763021E-22
      1.76528310000834E-19   1.76656176604597E-19  -3.06767839097549E-29   0.00000000000000E+00   0.00000000000000E+00
      0.00000000000000E+00   0.00000000000000E+00   8.39981017997801E-29  -8.39981017997799E-29   1.61017617887148E-43
      0.00000000000000E+00
      5.36000000000000E-01
      8.04000000000000E+00   8.04000000000000E+00   0.00000000000000E+00   0.00000000000000E+00   1.28318856390828E-22
     -1.28336486771796E-22  -1.76303809673723E-26  -3.37734939574273E-29   0.00000000000000E+00   0.00000000000000E+00
      0.00000000000000E+00   0.00000000000000E+00   8.42139712739184E-29  -8.42139712739182E-29   1.61017617887148E-43
      0.00000000000000E+00
      5.46000000000000E-01
      8.19000000000000E+00   8.19000000000000E+00   0.00000000000000E+00   0.00000000000000E+00   1.28365932771865E-22
      6.22818869757329E-19   6.22947235690101E-19  -3.37734939574273E-29   0.00000000000000E+00   0.00000000000000E+00
      0.00000000000000E+00   0.00000000000000E+00   8.41721160360473E-29  -8.41721160360472E-29   1.46379652624680E-43
      0.00000000000000E+00
      5.56000000000000E-01
      8.34000000000000E+00   8.34000000000000E+00   0.00000000000000E+00   0.00000000000000E+00   1.98374027490648E-22
      6.32046666863211E-19   6.32245040890701E-19  -3.99669140527722E-29   0.00000000000000E+00   0.00000000000000E+00
      0.00000000000000E+00   0.00000000000000E+00   8.41624571350002E-29  -8.41624571350000E-29   1.46379652624680E-43
      0.00000000000000E+00
      5.66000000000000E-01
      8.49000000000000E+00   8.49000000000000E+00   0.00000000000000E+00   0.00000000000000E+00   1.98757256754525E-22
      2.41541917010077E-19   2.41740674266832E-19  -2.13866537667377E-29   0.00000000000000E+00   0.00000000000000E+00
      0.00000000000000E+00   0.00000000000000E+00   8.41624571350002E-29  -8.41624571350000E-29   1.46379652624680E-43
      0.00000000000000E+00
      5.76000000000000E-01
      8.64000000000000E+00   8.64000000000000E+00   0.00000000000000E+00   0.00000000000000E+00   1.98457762295897E-22
      9.27784763233596E-20   9.29769340856555E-20  -2.44833638144101E-29   0.00000000000000E+00   0.00000000000000E+00
      0.00000000000000E+00   0.00000000000000E+00   8.41624571350002E-29  -8.41624571350000E-29   1.46379652624680E-43
      0.00000000000000E+00
      5.86000000000000E-01
      8.79000000000000E+00   8.79000000000000E+00   0.00000000000000E+00   0.00000000000000E+00   1.99017217599956E-22
      1.02075647791310E-19   1.02274665008910E-19  -3.99669140527722E-29   0.00000000000000E+00   0.00000000000000E+00
      0.00000000000000E+00   0.00000000000000E+00   8.41624571350002E-29  -8.41624571350000E-29   1.46379652624680E-43
      0.00000000000000E+00
      5.96000000000000E-01
      8.94000000000000E+00   8.94000000000000E+00   0.00000000000000E+00   0.00000000000000E+00   1.98509299325987E-22
     -2.51237437417184E-19  -2.51038928117858E-19  -2.44833638144101E-29   0.00000000000000E+00   0.00000000000000E+00
      0.00000000000000E+00   0.00000000000000E+00   8.41624571350002E-29  -8.41624571350000E-29   1.46379652624680E-43
      0.00000000000000E+00
      6.06000000000000E-01
      9.09000000000001E+00   9.09000000000001E+00   0.00000000000000E+00   0.00000000000000E+00   1.98489496348160E-22
      8.34807543129422E-20   8.36792438092904E-20  -2.75800738620825E-29   0.00000000000000E+00   0.00000000000000E+00
      0.00000000000000E+00   0.00000000000000E+00   8.41624571350002E-29  -8.41624571350000E-29   1.46379652624680E-43
      0.00000000000000E+00
      6.16000000000000E-01
      9.24000000000001E+00   9.24000000000001E+00   0.00000000000000E+00   0.00000000000000E+00   1.99027264053584E-22
      1.11373169678626E-19   1.11572196942680E-19  -3.68702040050998E-29   0.00000000000000E+00   0.00000000000000E+00
      0.00000000000000E+00   0.00000000000000E+00   8.41624571350002E-29  -8.41624571350000E-29   1.46379652624680E-43
      0.00000000000000E+00
      6.26000000000000E-01
      9.39000000000000E+00   9.39000000000000E+00   0.00000000000000E+00   0.00000000000000E+00   1.98579598475163E-22
      2.78732889579840E-19   2.78931469178315E-19  -1.82899437190652E-29   0.00000000000000E+00   0.00000000000000E+00
      0.00000000000000E+00   0.00000000000000E+00   8.41624571350002E-29  -8.41624571350000E-29   1.46379652624680E-43
      0.00000000000000E+00
      6.36000000000000E-01
      9.54000000000000E+00   9.54000000000000E+00   0.00000000000000E+00   0.00000000000000E+00   1.98870689155403E-22
      1.39266726400811E-19   1.39465597089966E-19  -3.06767839097549E-29   0.00000000000000E+00   0.00000000000000E+00
      0.00000000000000E+00   0.00000000000000E+00   8.41624571350002E-29  -8.41624571350000E-29   1.46379652624680E-43
      0.00000000000000E+00
      6.46000000000000E-01
      9.69000000000000E+00   9.69000000000000E+00   0.00000000000000E+00   0.00000000000000E+00   1.98731052612122E-22
      3.90305346605483E-19   3.90504077658095E-19  -2.75800738620825E-29   0.00000000000000E+00   0.00000000000000E+00
      0.00000000000000E+00   0.00000000000000E+00   8.41624571350002E-29  -8.41624571350000E-29   1.46379652624680E-43
      0.00000000000000E+00
      6.56000000000000E-01
      9.84000000000001E+00   9.84000000000001E+00   0.00000000000000E+00   0.00000000000000E+00   1.98435275630876E-22
     -1.67557855444536E-19  -1.67359420168905E-19  -2.44833638144101E-29   0.00000000000000E+00   0.00000000000000E+00
      0.00000000000000E+00   0.00000000000000E+00   8.41624571350002E-29  -8.41624571350000E-29   1.46379652624680E-43
      0.00000000000000E+00
      6.66000000000000E-01
      9.99000000000001E+00   9.99000000000001E+00   0.00000000000000E+00   0.00000000000000E+00   1.98934685284772E-22
     -3.07024332411857E-19  -3.06825397726572E-19  -3.68702040050998E-29   0.00000000000000E+00   0.00000000000000E+00
      0.00000000000000E+00   0.00000000000000E+00   8.41624571350002E-29  -8.41624571350000E-29   1.46379652624680E-43
      0.00000000000000E+00
      6.76000000000000E-01