DF-ISE text

Info {
  version   = 1.0
  type      = xyplot
  datasets  = [
    "time"
    "ntype OuterVoltage" "ntype InnerVoltage" "ntype QuasiFermiPotential" "ntype DisplacementCurrent" "ntype eCurrent"
    "ntype hCurrent" "ntype TotalCurrent" "ntype Charge" "ptype OuterVoltage" "ptype InnerVoltage"
    "ptype QuasiFermiPotential" "ptype DisplacementCurrent" "ptype eCurrent" "ptype hCurrent" "ptype TotalCurrent"
    "ptype Charge" ]
  functions = [
    Time
    OuterVoltage InnerVoltage QuasiFermiPotential DisplacementCurrent eCurrent
    hCurrent TotalCurrent Charge OuterVoltage InnerVoltage
    QuasiFermiPotential DisplacementCurrent eCurrent hCurrent TotalCurrent
    Charge ]
}

Data {
      0.00000000000000E+00
      0.00000000000000E+00   0.00000000000000E+00   0.00000000000000E+00   0.00000000000000E+00  -2.33009580844075E-24
      2.33009576067067E-24  -4.77700766731155E-32   1.16126626787716E-30   0.00000000000000E+00   0.00000000000000E+00
      0.00000000000000E+00   0.00000000000000E+00   4.23098450148043E-29  -3.43044301043785E-24  -3.43040070059283E-24
      4.53619635889515E-31
      0.00000000000000E+00
      0.00000000000000E+00   0.00000000000000E+00   0.00000000000000E+00   0.00000000000000E+00  -7.78707131265512E-21
      1.74641160574858E-20   9.67704474483069E-21   7.93531949716058E-30   0.00000000000000E+00   0.00000000000000E+00
      0.00000000000000E+00   0.00000000000000E+00   1.61996804383123E-23  -3.11542306142918E-24   1.30842573768831E-23
     -1.82052680536992E-30
      0.00000000000000E+00
      0.00000000000000E+00   0.00000000000000E+00   0.00000000000000E+00   0.00000000000000E+00  -1.37060136792564E-24
      4.46292734560833E-19   4.46291363959465E-19   5.49182172516906E-30   0.00000000000000E+00   0.00000000000000E+00
      0.00000000000000E+00   0.00000000000000E+00   7.76285597556128E-28   1.16300887686288E-26   1.24063743661850E-26
      1.63303068920225E-31
      5.00000000000000E-03
      7.50000000000000E-02   7.50000000000000E-02   0.00000000000000E+00   0.00000000000000E+00   7.08782124990996E-14
      1.48403953553614E-12   1.55491774803524E-12  -3.43541270913659E-30   0.00000000000000E+00   0.00000000000000E+00
      0.00000000000000E+00   0.00000000000000E+00  -1.22353949369893E-13  -1.43256349693492E-12  -1.55491744630482E-12
     -3.14509614216730E-31
      1.23333333333333E-02
      1.85000000000000E-01   1.85000000000000E-01   0.00000000000000E+00   0.00000000000000E+00   7.22038032109401E-13
      1.77711504963608E-11   1.84931885284702E-11  -1.49996892934133E-30   0.00000000000000E+00   0.00000000000000E+00
      0.00000000000000E+00   0.00000000000000E+00  -1.20145436122487E-12  -1.72917308218494E-11  -1.84931851830743E-11
     -6.04826181186020E-33
      2.23333333333333E-02
      3.35000000000000E-01   3.35000000000000E-01   0.00000000000000E+00   0.00000000000000E+00   1.80420097214049E-12
      6.88570448116482E-11   7.06612457837887E-11   1.08868712613484E-30   0.00000000000000E+00   0.00000000000000E+00
      0.00000000000000E+00   0.00000000000000E+00  -2.95704224590511E-12  -6.77042073604598E-11  -7.06612496063649E-11
      3.99185279582773E-31
      3.23333333333333E-02
      4.85000000000000E-01   4.85000000000000E-01   0.00000000000000E+00   0.00000000000000E+00   2.38619401011503E-12
      1.22350505371534E-10   1.24736699381649E-10  -4.83860944948816E-30   0.00000000000000E+00   0.00000000000000E+00
      0.00000000000000E+00   0.00000000000000E+00  -3.88029513056325E-12  -1.20856406751728E-10  -1.24736701882291E-10
     -1.98382987429014E-30
      4.23333333333333E-02
      6.35000000000000E-01   6.35000000000000E-01   0.00000000000000E+00   0.00000000000000E+00   2.75426130202855E-12
      1.74513667953118E-10   1.77267929255146E-10  -3.21767528390962E-30   0.00000000000000E+00   0.00000000000000E+00
      0.00000000000000E+00   0.00000000000000E+00  -4.45335438734066E-12  -1.72814573541075E-10  -1.77267927928416E-10
      1.93544377979526E-31
      5.23333333333333E-02
      7.85000000000000E-01   7.85000000000000E-01   0.00000000000000E+00   0.00000000000000E+00   3.02056363827137E-12
      2.25547509669568E-10   2.28568073307839E-10   5.70955915039602E-30   0.00000000000000E+00   0.00000000000000E+00
      0.00000000000000E+00   0.00000000000000E+00  -4.86084004433428E-12  -2.23707232131010E-10  -2.28568072175345E-10
     -1.08868712613484E-30
      6.23333333333333E-02
      9.35000000000000E-01   9.35000000000000E-01   0.00000000000000E+00   0.00000000000000E+00   3.23072710965793E-12
      2.75627295504064E-10   2.78858022613722E-10  -2.83058652795057E-30   0.00000000000000E+00   0.00000000000000E+00
      0.00000000000000E+00   0.00000000000000E+00  -5.17733899785897E-12  -2.73680682948950E-10  -2.78858021946809E-10
     -9.67721889897631E-31
      7.23333333333333E-02
      1.08500000000000E+00   1.08500000000000E+00   0.00000000000000E+00   0.00000000000000E+00   3.40699960660380E-12
      3.24894244466975E-10   3.28301244073579E-10   4.74183726049839E-30   0.00000000000000E+00   0.00000000000000E+00
      0.00000000000000E+00   0.00000000000000E+00  -5.43909154946537E-12  -3.22862151915933E-10  -3.28301243465399E-10
      1.98382987429014E-30
      8.23333333333333E-02
      1.23500000000000E+00   1.23500000000000E+00   0.00000000000000E+00   0.00000000000000E+00   3.56157938381217E-12
      3.73467045976376E-10   3.77028625360188E-10  -4.69345116600351E-30   0.00000000000000E+00   0.00000000000000E+00
      0.00000000000000E+00   0.00000000000000E+00  -5.66591238608788E-12  -3.71362712876284E-10  -3.77028625262371E-10
     -5.27408429994209E-30
      9.23333333333333E-02
      1.38500000000000E+00   1.38500000000000E+00   0.00000000000000E+00   0.00000000000000E+00   3.70174889115954E-12
      4.21447705104427E-10   4.25149453995587E-10  -1.69351330732085E-31   0.00000000000000E+00   0.00000000000000E+00
      0.00000000000000E+00   0.00000000000000E+00  -5.86958044280808E-12  -4.19279871817969E-10  -4.25149452260777E-10
     -4.01604584307517E-30
      1.02333333333333E-01
      1.53500000000000E+00   1.53500000000000E+00   0.00000000000000E+00   0.00000000000000E+00   3.83215491932361E-12
      4.68925072556386E-10   4.72757227475709E-10   3.12090309491986E-30   0.00000000000000E+00   0.00000000000000E+00
      0.00000000000000E+00   0.00000000000000E+00  -6.05753588694302E-12  -4.66699689181315E-10  -4.72757225068258E-10
      2.99993785868266E-30
      1.12333333333333E-01
      1.68500000000000E+00   1.68500000000000E+00   0.00000000000000E+00   0.00000000000000E+00   3.95593076165661E-12
      5.15977268910503E-10   5.19933199672160E-10   1.37900369310412E-30   0.00000000000000E+00   0.00000000000000E+00
      0.00000000000000E+00   0.00000000000000E+00  -6.23468096750547E-12  -5.13698521455513E-10  -5.19933202423019E-10
     -6.19342009534484E-30
      1.22333333333333E-01
      1.83500000000000E+00   1.83500000000000E+00   0.00000000000000E+00   0.00000000000000E+00   4.07529483026047E-12
      5.62673488072344E-10   5.66748782902604E-10  -6.24180618983972E-30   0.00000000000000E+00   0.00000000000000E+00
      0.00000000000000E+00   0.00000000000000E+00  -6.40433389635492E-12  -5.60344450826749E-10  -5.66748784723104E-10
     -4.88699554398304E-30
      1.32333333333333E-01
      1.98500000000000E+00   1.98500000000000E+00   0.00000000000000E+00   0.00000000000000E+00   4.19189334984952E-12
      6.09075346966357E-10   6.13267240316206E-10   7.74177511918105E-30   0.00000000000000E+00   0.00000000000000E+00
      0.00000000000000E+00   0.00000000000000E+00  -6.56877658449098E-12  -6.06698461374672E-10  -6.13267237959163E-10
      1.83867159080550E-30
      1.42333333333333E-01
      2.13500000000000E+00   2.13500000000000E+00   0.00000000000000E+00   0.00000000000000E+00   4.30701128082210E-12
      6.55237999745385E-10   6.59545011026207E-10  -5.61278696140626E-30   0.00000000000000E+00   0.00000000000000E+00
      0.00000000000000E+00   0.00000000000000E+00  -6.72959494589419E-12  -6.52815413763272E-10  -6.59545008709167E-10
      1.16126626787716E-30
      1.52333333333333E-01
      2.28500000000000E+00   2.28500000000000E+00   0.00000000000000E+00   0.00000000000000E+00   4.42171329529180E-12
      7.01211056671552E-10   7.05632769966844E-10   4.59667897701375E-31   0.00000000000000E+00   0.00000000000000E+00
      0.00000000000000E+00   0.00000000000000E+00  -6.88790536652619E-12  -6.98744863009190E-10  -7.05632768375716E-10
     -5.80633133938579E-30
      1.62333333333333E-01
      2.43500000000000E+00   2.43500000000000E+00   0.00000000000000E+00   0.00000000000000E+00   4.53694669669977E-12
      7.47039317696978E-10   7.51576264393678E-10  -1.11288017338228E-30   0.00000000000000E+00   0.00000000000000E+00
      0.00000000000000E+00   0.00000000000000E+00  -7.04451318146479E-12  -7.44531754721024E-10  -7.51576267902488E-10
     -1.36448786475566E-29
      1.72333333333333E-01
      2.58500000000000E+00   2.58500000000000E+00   0.00000000000000E+00   0.00000000000000E+00   4.65362252915375E-12
      7.92763429723670E-10   7.97417052252823E-10   1.21932958127102E-29   0.00000000000000E+00   0.00000000000000E+00
      0.00000000000000E+00   0.00000000000000E+00  -7.20002687338496E-12  -7.90217025645242E-10  -7.97417052518627E-10
      8.03209168615034E-30
      1.82333333333333E-01
      2.73500000000000E+00   2.73500000000000E+00   0.00000000000000E+00   0.00000000000000E+00   4.77268261694910E-12
      8.38420385710191E-10   8.43193068327140E-10   1.01610798439251E-30   0.00000000000000E+00   0.00000000000000E+00
      0.00000000000000E+00   0.00000000000000E+00  -7.35494130340409E-12  -8.35838126154060E-10  -8.43193067457464E-10
     -5.22569820544721E-30
      1.92333333333333E-01
      2.88500000000000E+00   2.88500000000000E+00   0.00000000000000E+00   0.00000000000000E+00   4.89515962631432E-12
      8.84044020629673E-10   8.88939180255987E-10   3.43541270913659E-30   0.00000000000000E+00   0.00000000000000E+00
      0.00000000000000E+00   0.00000000000000E+00  -7.50950760301121E-12  -8.81429673361938E-10  -8.88939180964949E-10
      2.30317809795636E-29
      2.02333333333333E-01
      3.03500000000000E+00   3.03500000000000E+00   0.00000000000000E+00   0.00000000000000E+00   5.02215056491986E-12
      9.29665356362340E-10   9.34687506927259E-10  -1.28223150411436E-30   0.00000000000000E+00   0.00000000000000E+00
      0.00000000000000E+00   0.00000000000000E+00  -7.66728119572953E-12  -9.27020223834640E-10  -9.34687505030369E-10
     -1.81931715300755E-29
      2.12333333333333E-01
      3.18500000000000E+00   3.18500000000000E+00   0.00000000000000E+00   0.00000000000000E+00   5.15499858278027E-12
      9.75313012896287E-10   9.80468011479068E-10  -3.36283356739427E-30   0.00000000000000E+00   0.00000000000000E+00
      0.00000000000000E+00   0.00000000000000E+00  -7.82785617811452E-12  -9.72640154061402E-10  -9.80468010239517E-10
     -1.16126626787716E-30
      2.22333333333333E-01
      3.33500000000000E+00   3.33500000000000E+00   0.00000000000000E+00   0.00000000000000E+00   5.29523734310418E-12
      1.02101347109844E-09   1.02630870844155E-09  -8.15305692238754E-30   0.00000000000000E+00   0.00000000000000E+00
      0.00000000000000E+00   0.00000000000000E+00  -7.99137137082706E-12  -1.01831733532808E-09  -1.02630870669891E-09
      9.77399108796608E-30
      2.32333333333333E-01
      3.48500000000000E+00   3.48500000000000E+00   0.00000000000000E+00   0.00000000000000E+00   5.44460659728106E-12
      1.06679130215968E-09   1.07223590875696E-09   1.04030103163995E-30   0.00000000000000E+00   0.00000000000000E+00
      0.00000000000000E+00   0.00000000000000E+00  -8.15862414505513E-12  -1.06407728293790E-09  -1.07223590708296E-09
     -1.27739289466487E-29
      2.42333333333333E-01
      3.63500000000000E+00   3.63500000000000E+00   0.00000000000000E+00   0.00000000000000E+00   5.60507971256825E-12
      1.11266939693834E-09   1.11827447665091E-09  -3.38702661464171E-30   0.00000000000000E+00   0.00000000000000E+00
      0.00000000000000E+00   0.00000000000000E+00  -8.33039904399626E-12  -1.10994408022720E-09  -1.11827447927120E-09
     -8.51595263109916E-30
      2.52333333333333E-01
      3.78500000000000E+00   3.78500000000000E+00   0.00000000000000E+00   0.00000000000000E+00   5.77887060492018E-12
      1.15866917245116E-09   1.16444804305608E-09  -1.20965236237204E-31   0.00000000000000E+00   0.00000000000000E+00
      0.00000000000000E+00   0.00000000000000E+00  -8.50751986502193E-12  -1.15594051940810E-09  -1.16444803927312E-09
     -1.19997514347306E-29
      2.62333333333333E-01
      3.93500000000000E+00   3.93500000000000E+00   0.00000000000000E+00   0.00000000000000E+00   5.96843739440187E-12
      1.20481068068372E-09   1.21077911807812E-09   1.81447854355806E-30   0.00000000000000E+00   0.00000000000000E+00
      0.00000000000000E+00   0.00000000000000E+00  -8.69085242099037E-12  -1.20208826428992E-09  -1.21077911671091E-09
      8.90304138705821E-30
      2.72333333333333E-01
      4.08500000000000E+00   4.08500000000000E+00   0.00000000000000E+00   0.00000000000000E+00   6.17648312469937E-12
      1.25111281126968E-09   1.25728929439438E-09   1.45158283484645E-30   0.00000000000000E+00   0.00000000000000E+00
      0.00000000000000E+00   0.00000000000000E+00  -8.88130657250700E-12  -1.24840798992974E-09  -1.25728929650225E-09
      2.59349466492565E-29
      2.82333333333333E-01
      4.23500000000000E+00   4.23500000000000E+00   0.00000000000000E+00   0.00000000000000E+00   6.40595479257977E-12
      1.29759338908669E-09   1.30399934387927E-09  -7.25791417423224E-32   0.00000000000000E+00   0.00000000000000E+00
      0.00000000000000E+00   0.00000000000000E+00  -9.07983785200456E-12  -1.29491950353218E-09  -1.30399934138419E-09
      2.03221596878503E-29
      2.92333333333333E-01
      4.38500000000000E+00   4.38500000000000E+00   0.00000000000000E+00   0.00000000000000E+00   6.66004176255708E-12
      1.34426925668112E-09   1.35092929844367E-09   1.26771567576590E-29   0.00000000000000E+00   0.00000000000000E+00
      0.00000000000000E+00   0.00000000000000E+00  -9.28744887699649E-12  -1.34164185035295E-09  -1.35092929922995E-09
     -8.70949700907868E-30
      3.02333333333333E-01
      4.53500000000000E+00   4.53500000000000E+00   0.00000000000000E+00   0.00000000000000E+00   6.94217444437499E-12
      1.39115642476790E-09   1.39809859921227E-09  -7.45145855221176E-30   0.00000000000000E+00   0.00000000000000E+00
      0.00000000000000E+00   0.00000000000000E+00  -9.50519066257424E-12  -1.38859340778479E-09  -1.39809859844736E-09
      1.66448165062393E-29
      3.12333333333333E-01
      4.68500000000000E+00   4.68500000000000E+00   0.00000000000000E+00   0.00000000000000E+00   7.25602390912675E-12
      1.43827010749389E-09   1.44552613140302E-09   1.88705768530038E-30   0.00000000000000E+00   0.00000000000000E+00
      0.00000000000000E+00   0.00000000000000E+00  -9.73416388141824E-12  -1.43579197025310E-09  -1.44552613413452E-09
     -5.80633133938579E-30
      3.22333333333333E-01
      4.83500000000000E+00   4.83500000000000E+00   0.00000000000000E+00   0.00000000000000E+00   7.60550293049456E-12
      1.48562484336640E-09   1.49323034629690E-09   3.31444747289939E-30   0.00000000000000E+00   0.00000000000000E+00
      0.00000000000000E+00   0.00000000000000E+00  -9.97552007559534E-12  -1.48325482704638E-09  -1.49323034712198E-09
      2.01286153098707E-29
      3.32333333333333E-01
      4.98500000000000E+00   4.98500000000000E+00   0.00000000000000E+00   0.00000000000000E+00   7.99476877161999E-12
      1.53323452838959E-09   1.54122929716122E-09  -3.29025442565195E-30   0.00000000000000E+00   0.00000000000000E+00
      0.00000000000000E+00   0.00000000000000E+00  -1.02304627927621E-11  -1.53099883476801E-09  -1.54122929756078E-09
      4.10314081316596E-29
      3.42333333333333E-01
      5.13500000000000E+00   5.13500000000000E+00   0.00000000000000E+00   0.00000000000000E+00   8.42822790171285E-12
      1.58111251167560E-09   1.58954073957731E-09   2.49188386648640E-30   0.00000000000000E+00   0.00000000000000E+00
      0.00000000000000E+00   0.00000000000000E+00  -1.05002485962035E-11  -1.57904048572926E-09  -1.58954073432546E-09
      1.41287395925054E-29
      3.52333333333333E-01
      5.28500000000000E+00   5.28500000000000E+00   0.00000000000000E+00   0.00000000000000E+00   8.91054272154731E-12
      1.62927161768082E-09   1.63818216040236E-09  -1.37900369310412E-30   0.00000000000000E+00   0.00000000000000E+00
      0.00000000000000E+00   0.00000000000000E+00  -1.07861878806798E-11  -1.62739597330760E-09  -1.63818216118828E-09
     -5.03215382746768E-30
      3.62333333333334E-01
      5.43500000000000E+00   5.43500000000000E+00   0.00000000000000E+00   0.00000000000000E+00   9.44664030216357E-12
      1.67772426418566E-09   1.68717090448782E-09   1.69351330732086E-30   0.00000000000000E+00   0.00000000000000E+00
      0.00000000000000E+00   0.00000000000000E+00  -1.10896454124431E-11  -1.67608125506621E-09  -1.68717090047866E-09
      1.49029171044235E-29
      3.72333333333334E-01
      5.58500000000000E+00   5.58500000000000E+00   0.00000000000000E+00   0.00000000000000E+00   1.00477407405884E-11
      1.72648631795419E-09   1.73653405869477E-09  -1.40319674035157E-30   0.00000000000000E+00   0.00000000000000E+00
      0.00000000000000E+00   0.00000000000000E+00  -1.14120095157083E-11  -1.72512205074548E-09  -1.73653406026119E-09
     -1.85802602860345E-29
      3.82333333333334E-01
      5.73500000000000E+00   5.73500000000000E+00   0.00000000000000E+00   0.00000000000000E+00   1.06981279272887E-11
      1.77555575034105E-09   1.78625387826834E-09   7.86274035541826E-30   0.00000000000000E+00   0.00000000000000E+00
      0.00000000000000E+00   0.00000000000000E+00  -1.17548631825033E-11  -1.77449901439162E-09  -1.78625387757413E-09
      3.23219111225809E-29
      3.92333333333334E-01
      5.88500000000000E+00   5.88500000000000E+00   0.00000000000000E+00   0.00000000000000E+00   1.13747974353054E-11
      1.82492535209002E-09   1.83630014952532E-09   1.91125073254782E-30   0.00000000000000E+00   0.00000000000000E+00
      0.00000000000000E+00   0.00000000000000E+00  -1.21198895187604E-11  -1.82418026009967E-09  -1.83630014961843E-09
     -4.76119169829635E-29
      4.02333333333334E-01
      6.03500000000000E+00   6.03500000000000E+00   0.00000000000000E+00   0.00000000000000E+00   1.21042833685303E-11
      1.87461945504872E-09   1.88672373841725E-09   1.71044844039406E-29   0.00000000000000E+00   0.00000000000000E+00
      0.00000000000000E+00   0.00000000000000E+00  -1.25085669951250E-11  -1.87421517288150E-09  -1.88672373987662E-09
      1.50964614824031E-29
      4.12333333333334E-01
      6.18500000000000E+00   6.18500000000000E+00   0.00000000000000E+00   0.00000000000000E+00   1.29068743591009E-11
      1.92465789301024E-09   1.93756476736934E-09  -5.39504953617930E-30   0.00000000000000E+00   0.00000000000000E+00
      0.00000000000000E+00   0.00000000000000E+00  -1.29224527221905E-11  -1.92464231413181E-09  -1.93756476685400E-09
      1.78060827741164E-29
      4.22333333333334E-01
      6.33500000000000E+00   6.33500000000000E+00   0.00000000000000E+00   0.00000000000000E+00   1.37817482324900E-11
      1.97504647284886E-09   1.98882822108135E-09  -1.30158594191231E-29   0.00000000000000E+00   0.00000000000000E+00
      0.00000000000000E+00   0.00000000000000E+00  -1.33632638722169E-11  -1.97546495469329E-09  -1.98882821856551E-09
      2.94187454528880E-29
      4.32333333333334E-01
      6.48500000000000E+00   6.48500000000000E+00   0.00000000000000E+00   0.00000000000000E+00   1.47344170239904E-11
      2.02579470303424E-09   2.04052912005823E-09  -1.47577588209389E-30   0.00000000000000E+00   0.00000000000000E+00
      0.00000000000000E+00   0.00000000000000E+00  -1.38327275473446E-11  -2.02669639310625E-09  -2.04052912065360E-09
      8.70949700907868E-30
      4.42333333333334E-01
      6.63500000000000E+00   6.63500000000000E+00   0.00000000000000E+00   0.00000000000000E+00   1.57707370746657E-11
      2.07691196528770E-09   2.09268270236236E-09   1.37900369310412E-30   0.00000000000000E+00   0.00000000000000E+00
      0.00000000000000E+00   0.00000000000000E+00  -1.43326069395621E-11  -2.07835009646563E-09  -2.09268270340519E-09
     -7.54823074120153E-30
      4.52333333333334E-01
      6.78500000000000E+00   6.78500000000000E+00   0.00000000000000E+00   0.00000000000000E+00   1.68969283872076E-11
      2.12840752205417E-09   2.14530445044138E-09   1.10320295448330E-29   0.00000000000000E+00   0.00000000000000E+00
      0.00000000000000E+00   0.00000000000000E+00  -1.48646943013148E-11  -2.13043975711479E-09  -2.14530445141611E-09
      5.82568577718374E-29
      4.62333333333334E-01
      6.93500000000000E+00   6.93500000000000E+00   0.00000000000000E+00   0.00000000000000E+00   1.81195943093580E-11
      2.18029055687108E-09   2.19841015118044E-09   1.06933268833688E-29   0.00000000000000E+00   0.00000000000000E+00
      0.00000000000000E+00   0.00000000000000E+00  -1.54308024716570E-11  -2.18297934898800E-09  -2.19841015145966E-09
     -4.78054613609430E-29
      4.72333333333334E-01
      7.08500000000000E+00   7.08500000000000E+00   0.00000000000000E+00   0.00000000000000E+00   1.94457416152908E-11
      2.23257019395310E-09   2.25201593556839E-09  -3.31444747289939E-30   0.00000000000000E+00   0.00000000000000E+00
      0.00000000000000E+00   0.00000000000000E+00  -1.60327548495887E-11  -2.23598318395181E-09  -2.25201593880140E-09
      5.88374909057760E-29
      4.82333333333334E-01
      7.23500000000000E+00   7.23500000000000E+00   0.00000000000000E+00   0.00000000000000E+00   2.08828010770910E-11
      2.28525554206151E-09   2.30613834313860E-09   6.43535056781925E-30   0.00000000000000E+00   0.00000000000000E+00
      0.00000000000000E+00   0.00000000000000E+00  -1.66723737213891E-11  -2.28946596849383E-09  -2.30613834221522E-09
      4.25797631554958E-30
      4.92333333333334E-01
      7.38500000000000E+00   7.38500000000000E+00   0.00000000000000E+00   0.00000000000000E+00   2.24386486428738E-11
      2.33835568173150E-09   2.36079433037438E-09  -8.22563606412987E-30   0.00000000000000E+00   0.00000000000000E+00
      0.00000000000000E+00   0.00000000000000E+00  -1.73514668695314E-11  -2.34344286110700E-09  -2.36079432797653E-09
      5.41924258342674E-30
      5.02333333333334E-01
      7.53500000000000E+00   7.53500000000000E+00   0.00000000000000E+00   0.00000000000000E+00   2.41216273656586E-11
      2.39187971517593E-09   2.41600134254159E-09   9.07239271779029E-30   0.00000000000000E+00   0.00000000000000E+00
      0.00000000000000E+00   0.00000000000000E+00  -1.80718124179012E-11  -2.39792953071953E-09  -2.41600134313743E-09
      3.52250767922738E-29
      5.12333333333334E-01
      7.68500000000000E+00   7.68500000000000E+00   0.00000000000000E+00   0.00000000000000E+00   2.59405702630168E-11
      2.44583678684095E-09   2.47177735710396E-09  -5.32247039443697E-31   0.00000000000000E+00   0.00000000000000E+00
      0.00000000000000E+00   0.00000000000000E+00  -1.88351419022724E-11  -2.45294221652700E-09  -2.47177735842927E-09
     -3.40638105243966E-29
      5.22333333333334E-01
      7.83500000000000E+00   7.83500000000000E+00   0.00000000000000E+00   0.00000000000000E+00   2.79048243257794E-11
      2.50023608948913E-09   2.52814091381491E-09  -3.60476403986868E-30   0.00000000000000E+00   0.00000000000000E+00
      0.00000000000000E+00   0.00000000000000E+00  -1.96431215969704E-11  -2.50849778959404E-09  -2.52814091119101E-09
     -1.04901052864903E-28
      5.32333333333334E-01
      7.98500000000000E+00   7.98500000000000E+00   0.00000000000000E+00   0.00000000000000E+00   3.00242759467217E-11
      2.55508687364223E-09   2.58511114958895E-09   3.43541270913659E-30   0.00000000000000E+00   0.00000000000000E+00
      0.00000000000000E+00   0.00000000000000E+00  -2.04973321788538E-11  -2.56461381661076E-09  -2.58511114878962E-09
     -5.99987571736531E-29
      5.42333333333334E-01
      8.13500000000001E+00   8.13500000000001E+00   0.00000000000000E+00   0.00000000000000E+00   3.23093780935339E-11
      2.61039849236805E-09   2.64270787046159E-09   1.55319363328570E-29   0.00000000000000E+00   0.00000000000000E+00
      0.00000000000000E+00   0.00000000000000E+00  -2.13992468684176E-11  -2.62130862621333E-09  -2.64270787308175E-09
     -3.09671004767242E-30
      5.52333333333334E-01
      8.28500000000001E+00   8.28500000000001E+00   0.00000000000000E+00   0.00000000000000E+00   3.47711796271041E-11
      2.66618040616387E-09   2.70095158579097E-09   6.04826181186020E-30   0.00000000000000E+00   0.00000000000000E+00
      0.00000000000000E+00   0.00000000000000E+00  -2.23502082547931E-11  -2.67860137831027E-09  -2.70095158656506E-09
      1.85802602860345E-29
      5.62333333333334E-01
      8.43500000000001E+00   8.43500000000001E+00   0.00000000000000E+00   0.00000000000000E+00   3.74213572306476E-11
      2.72244218387427E-09   2.75986354110492E-09  -7.04017674900527E-30   0.00000000000000E+00   0.00000000000000E+00
      0.00000000000000E+00   0.00000000000000E+00  -2.33514040860265E-11  -2.73651213689620E-09  -2.75986354098223E-09
      2.67091241611746E-29
      5.72333333333334E-01
      8.58500000000001E+00   8.58500000000001E+00   0.00000000000000E+00   0.00000000000000E+00   4.02722505176953E-11
      2.77919354097190E-09   2.81946579148960E-09  -1.69351330732086E-30   0.00000000000000E+00   0.00000000000000E+00
      0.00000000000000E+00   0.00000000000000E+00  -2.44038423866249E-11  -2.79506194688257E-09  -2.81946578926920E-09
     -3.87088755959053E-29
      5.82333333333334E-01
      8.73500000000000E+00   8.73500000000000E+00   0.00000000000000E+00   0.00000000000000E+00   4.33369009721707E-11
      2.83644433947851E-09   2.87978124045068E-09   4.83860944948816E-30   0.00000000000000E+00   0.00000000000000E+00
      0.00000000000000E+00   0.00000000000000E+00  -2.55083263459119E-11  -2.85427291553404E-09  -2.87978124187995E-09
      4.33539406674139E-29
      5.92333333333334E-01
      8.88500000000001E+00   8.88500000000001E+00   0.00000000000000E+00   0.00000000000000E+00   4.66371489511434E-11
      2.89420962984834E-09   2.94084677879949E-09  -2.51607691373384E-30   0.00000000000000E+00   0.00000000000000E+00
      0.00000000000000E+00   0.00000000000000E+00  -2.66653921492871E-11  -2.91418138360442E-09  -2.94084677575371E-09
     -3.75476093280281E-29
      6.02333333333334E-01
      9.03500000000001E+00   9.03500000000001E+00   0.00000000000000E+00   0.00000000000000E+00   5.01857362217134E-11
      2.95249844702769E-09   3.00268418324940E-09   2.95155176418778E-30   0.00000000000000E+00   0.00000000000000E+00
      0.00000000000000E+00   0.00000000000000E+00  -2.78753687972971E-11  -2.97480881143341E-09  -3.00268418023071E-09
     -4.45152069352910E-29
      6.12333333333334E-01
      9.18500000000001E+00   9.18500000000001E+00   0.00000000000000E+00   0.00000000000000E+00   5.39637164809950E-11
      3.01130003594946E-09   3.06526375243046E-09  -1.93544377979526E-30   0.00000000000000E+00   0.00000000000000E+00
      0.00000000000000E+00   0.00000000000000E+00  -2.91384533423878E-11  -3.03612530039456E-09  -3.06526375373694E-09
      8.51595263109916E-30
      6.22333333333334E-01
      9.33500000000001E+00   9.33500000000001E+00   0.00000000000000E+00   0.00000000000000E+00   5.79597321361358E-11
      3.07060831175890E-09   3.12856804389503E-09   3.67734318161100E-30   0.00000000000000E+00   0.00000000000000E+00
      0.00000000000000E+00   0.00000000000000E+00  -3.04545109150309E-11  -3.09811353104142E-09  -3.12856804195646E-09
      8.28369937752372E-29
      6.32333333333334E-01
      9.48500000000001E+00   9.48500000000001E+00   0.00000000000000E+00   0.00000000000000E+00   6.21859999711059E-11
      3.13043152424567E-09   3.19261752421678E-09   6.33857837882948E-30   0.00000000000000E+00   0.00000000000000E+00
      0.00000000000000E+00   0.00000000000000E+00  -3.18229925440243E-11  -3.16079452975565E-09  -3.19261752229968E-09
     -5.88374909057760E-29
      6.42333333333334E-01
      9.63500000000001E+00   9.63500000000001E+00   0.00000000000000E+00   0.00000000000000E+00   6.66865087713074E-11
      3.19079699500921E-09   3.25748350378052E-09  -4.37894155178678E-30   0.00000000000000E+00   0.00000000000000E+00
      0.00000000000000E+00   0.00000000000000E+00  -3.32428835696882E-11  -3.22424062358899E-09  -3.25748350715868E-09
      4.64506507150863E-30
      6.52333333333334E-01
      9.78500000000001E+00   9.78500000000001E+00   0.00000000000000E+00   0.00000000000000E+00   7.15114972654294E-11
      3.25173524531435E-09   3.32324674257978E-09  -8.39498739486195E-30   0.00000000000000E+00   0.00000000000000E+00
      0.00000000000000E+00   0.00000000000000E+00  -3.47128155067531E-11  -3.28853392778510E-09  -3.32324674329186E-09
      7.47081299000971E-29
      6.62333333333334E-01
      9.93500000000001E+00   9.93500000000001E+00   0.00000000000000E+00   0.00000000000000E+00   7.66624188052725E-11
      3.31324666523933E-09   3.38990908404460E-09   8.41918044210939E-30   0.00000000000000E+00   0.00000000000000E+00
      0.00000000000000E+00   0.00000000000000E+00  -3.62313000357297E-11  -3.35367778360675E-09  -3.38990908364248E-09
     -2.47736803813794E-29
      6.72333333333334E-01
      1.00850000000000E+01   1.00850000000000E+01   0.00000000000000E+00   0.00000000000000E+00   8.21579301995407E-11
      3.37534179264336E-09   3.45749972284290E-09   6.04826181186020E-31   0.00000000000000E+00   0.00000000000000E+00
      0.00000000000000E+00   0.00000000000000E+00  -3.77964378210043E-11  -3.41970328605941E-09  -3.45749972388042E-09
     -5.76762246378988E-29
      6.82333333333334E-01