DF-ISE text

Info {
  version   = 1.0
  type      = xyplot
  datasets  = [
    "time"
    "ntype OuterVoltage" "ntype InnerVoltage" "ntype QuasiFermiPotential" "ntype DisplacementCurrent" "ntype eCurrent"
    "ntype hCurrent" "ntype TotalCurrent" "ntype Charge" "ptype OuterVoltage" "ptype InnerVoltage"
    "ptype QuasiFermiPotential" "ptype DisplacementCurrent" "ptype eCurrent" "ptype hCurrent" "ptype TotalCurrent"
    "ptype Charge" ]
  functions = [
    Time
    OuterVoltage InnerVoltage QuasiFermiPotential DisplacementCurrent eCurrent
    hCurrent TotalCurrent Charge OuterVoltage InnerVoltage
    QuasiFermiPotential DisplacementCurrent eCurrent hCurrent TotalCurrent
    Charge ]
}

Data {
      0.00000000000000E+00
      0.00000000000000E+00   0.00000000000000E+00   0.00000000000000E+00   0.00000000000000E+00   9.62116296000024E-09
     -9.62116292632389E-09   3.36763437699007E-17   4.74183726049839E-30   0.00000000000000E+00   0.00000000000000E+00
      0.00000000000000E+00   0.00000000000000E+00   1.15238071614528E-28  -1.15238071614528E-28   0.00000000000000E+00
      0.00000000000000E+00
      0.00000000000000E+00
      0.00000000000000E+00   0.00000000000000E+00   0.00000000000000E+00   0.00000000000000E+00   8.04246894834009E-09
     -8.04502665910392E-09  -2.55771076382847E-12   1.07417129778637E-29   0.00000000000000E+00   0.00000000000000E+00
      0.00000000000000E+00   0.00000000000000E+00   1.13486550712851E-28  -1.13486550712851E-28   0.00000000000000E+00
      0.00000000000000E+00
      0.00000000000000E+00
      0.00000000000000E+00   0.00000000000000E+00   0.00000000000000E+00   0.00000000000000E+00   1.94991235648766E-09
     -1.94991235643304E-09   5.46248021605228E-20  -1.79028549631062E-29   0.00000000000000E+00   0.00000000000000E+00
      0.00000000000000E+00   0.00000000000000E+00   8.41624571350002E-29  -8.41624571350000E-29   1.46379652624680E-43
      0.00000000000000E+00
      1.00000000000000E-01
      1.00000000000000E-02   1.00000000000000E-02   0.00000000000000E+00   0.00000000000000E+00   1.94991412559112E-09
     -1.94991412496808E-09   6.23038455286500E-19  -8.95142748155309E-30   0.00000000000000E+00   0.00000000000000E+00
      0.00000000000000E+00   0.00000000000000E+00   8.41624571350002E-29  -8.41624571350000E-29   1.46379652624680E-43
      0.00000000000000E+00
      2.00000000000000E-01
      2.00000000000000E-02   2.00000000000000E-02   0.00000000000000E+00   0.00000000000000E+00   1.94991232001175E-09
     -1.94991231928256E-09   7.29188197875524E-19   3.53218489812635E-30   0.00000000000000E+00   0.00000000000000E+00
      0.00000000000000E+00   0.00000000000000E+00   8.41624571350002E-29  -8.41624571350000E-29   1.46379652624680E-43
      0.00000000000000E+00
      3.00000000000000E-01
      3.00000000000000E-02   3.00000000000000E-02   0.00000000000000E+00   0.00000000000000E+00   1.94991231711159E-09
     -1.94991231744883E-09  -3.37245244779641E-19  -6.58050885130389E-30   0.00000000000000E+00   0.00000000000000E+00
      0.00000000000000E+00   0.00000000000000E+00   8.38610115655159E-29  -8.38610115654391E-29   7.67322139058571E-41
      0.00000000000000E+00
      4.00000000000000E-01
      4.00000000000000E-02   4.00000000000000E-02   0.00000000000000E+00   0.00000000000000E+00   1.94991231810723E-09
     -1.94991231770181E-09   4.05418170855012E-19  -3.33864052014683E-30   0.00000000000000E+00   0.00000000000000E+00
      0.00000000000000E+00   0.00000000000000E+00   8.37243914191273E-29  -8.37243914190412E-29   8.61005116738366E-41
      0.00000000000000E+00
      5.00000000000000E-01
      5.00000000000000E-02   5.00000000000000E-02   0.00000000000000E+00   0.00000000000000E+00   1.94991231810923E-09
     -1.94991231803856E-09   7.06738772393071E-20  -1.78060827741164E-29   0.00000000000000E+00   0.00000000000000E+00
      0.00000000000000E+00   0.00000000000000E+00   8.39981017997801E-29  -8.39981017997799E-29   1.61017617887148E-43
      0.00000000000000E+00
      6.00000000000000E-01
      6.00000000000000E-02   6.00000000000000E-02   0.00000000000000E+00   0.00000000000000E+00   1.94991231810888E-09
     -1.94991231843801E-09  -3.29129979579800E-19  -6.19342009534484E-30   0.00000000000000E+00   0.00000000000000E+00
      0.00000000000000E+00   0.00000000000000E+00   8.42139712739184E-29  -8.42139712739182E-29   1.61017617887148E-43
      0.00000000000000E+00
      7.00000000000000E-01
      7.00000000000000E-02   7.00000000000000E-02   0.00000000000000E+00   0.00000000000000E+00   1.94991231810873E-09
     -1.94991231886556E-09  -7.56824491303133E-19   2.74349155785979E-29   0.00000000000000E+00   0.00000000000000E+00
      0.00000000000000E+00   0.00000000000000E+00   8.41721160360473E-29  -8.41721160360472E-29   1.46379652624680E-43
      0.00000000000000E+00
      8.00000000000000E-01
      8.00000000000000E-02   8.00000000000000E-02   0.00000000000000E+00   0.00000000000000E+00   1.94991231810945E-09
     -1.94991231750880E-09   6.00644654500632E-19   1.52900058603826E-29   0.00000000000000E+00   0.00000000000000E+00
      0.00000000000000E+00   0.00000000000000E+00   8.41624571350002E-29  -8.41624571350000E-29   1.46379652624680E-43
      0.00000000000000E+00
      9.00000000000000E-01
      9.00000000000000E-02   9.00000000000000E-02   0.00000000000000E+00   0.00000000000000E+00   1.94991231810949E-09
     -1.94991231904297E-09  -9.33479346882116E-19   8.51595263109916E-30   0.00000000000000E+00   0.00000000000000E+00
      0.00000000000000E+00   0.00000000000000E+00   8.41624571350002E-29  -8.41624571350000E-29   1.46379652624680E-43
      0.00000000000000E+00
      1.00000000000000E+00
      1.00000000000000E-01   1.00000000000000E-01   0.00000000000000E+00   0.00000000000000E+00   1.94991231810889E-09
     -1.94991231886572E-09  -7.56824221280334E-19   8.99981357604797E-30   0.00000000000000E+00   0.00000000000000E+00
      0.00000000000000E+00   0.00000000000000E+00   8.41624571350002E-29  -8.41624571350000E-29   1.46379652624680E-43
      0.00000000000000E+00
}
