DF-ISE text

Info {
  version   = 1.0
  type      = xyplot
  datasets  = [
    "time"
    "ntype OuterVoltage" "ntype InnerVoltage" "ntype QuasiFermiPotential" "ntype DisplacementCurrent" "ntype eCurrent"
    "ntype hCurrent" "ntype TotalCurrent" "ntype Charge" "ptype OuterVoltage" "ptype InnerVoltage"
    "ptype QuasiFermiPotential" "ptype DisplacementCurrent" "ptype eCurrent" "ptype hCurrent" "ptype TotalCurrent"
    "ptype Charge" ]
  functions = [
    Time
    OuterVoltage InnerVoltage QuasiFermiPotential DisplacementCurrent eCurrent
    hCurrent TotalCurrent Charge OuterVoltage InnerVoltage
    QuasiFermiPotential DisplacementCurrent eCurrent hCurrent TotalCurrent
    Charge ]
}

Data {
      0.00000000000000E+00
      0.00000000000000E+00   0.00000000000000E+00   0.00000000000000E+00   0.00000000000000E+00   9.61315200000021E-09
     -9.61315200000023E-09  -1.83615503290486E-23  -1.23384540961948E-30   0.00000000000000E+00   0.00000000000000E+00
      0.00000000000000E+00   0.00000000000000E+00   4.23194733475567E-29  -3.40495035647666E-24  -3.40490803700331E-24
      8.22563606412987E-31
      0.00000000000000E+00
      0.00000000000000E+00   0.00000000000000E+00   0.00000000000000E+00   0.00000000000000E+00   1.34956687169206E-08
     -7.14059879021489E-09   6.35506992670575E-09   8.83046224531589E-31   0.00000000000000E+00   0.00000000000000E+00
      0.00000000000000E+00   0.00000000000000E+00   5.31804109635804E-11   5.96776919201957E-13   5.37771878827824E-11
     -3.02413090593010E-32
      0.00000000000000E+00
      0.00000000000000E+00   0.00000000000000E+00   0.00000000000000E+00   0.00000000000000E+00   1.34927923622323E-08
     -1.35459691902686E-08  -5.31768280363453E-11  -1.97173335066642E-30   0.00000000000000E+00   0.00000000000000E+00
      0.00000000000000E+00   0.00000000000000E+00   5.31680105558584E-11   8.81361697179037E-15   5.31768241728302E-11
     -2.72171781533709E-31
      5.00000000000000E-03
      7.50000000000000E-02   7.50000000000000E-02   0.00000000000000E+00   0.00000000000000E+00   1.35102568145810E-08
     -1.35393525858844E-08  -2.90957713034730E-11   1.52416197658877E-30   0.00000000000000E+00   0.00000000000000E+00
      0.00000000000000E+00   0.00000000000000E+00   3.04808865072582E-11  -1.38511503942459E-12   2.90957714678336E-11
      1.14916974425344E-31
      1.26666666666667E-02
      1.90000000000000E-01   1.90000000000000E-01   0.00000000000000E+00   0.00000000000000E+00   1.35321646636615E-08
     -1.35160566406207E-08   1.61080230407622E-11  -1.51206545296505E-30   0.00000000000000E+00   0.00000000000000E+00
      0.00000000000000E+00   0.00000000000000E+00   2.37624077847628E-12  -1.84842636964389E-11  -1.61080229179626E-11
      3.47775054181961E-32
      2.26666666666667E-02
      3.40000000000000E-01   3.40000000000000E-01   0.00000000000000E+00   0.00000000000000E+00   1.35367387212782E-08
     -1.34645058751210E-08   7.22328461571433E-11  -4.83860944948816E-32   0.00000000000000E+00   0.00000000000000E+00
      0.00000000000000E+00   0.00000000000000E+00  -2.97310292891472E-12  -6.92597396538040E-11  -7.22328425827187E-11
     -5.80633133938579E-31
      3.26666666666667E-02
      4.90000000000000E-01   4.90000000000000E-01   0.00000000000000E+00   0.00000000000000E+00   1.35377711874272E-08
     -1.34116708163938E-08   1.26100371033342E-10   3.01203438230638E-30   0.00000000000000E+00   0.00000000000000E+00
      0.00000000000000E+00   0.00000000000000E+00  -3.90505968288684E-12  -1.22195309964102E-10  -1.26100369646989E-10
     -1.41529326397529E-30
      4.26666666666667E-02
      6.40000000000000E-01   6.40000000000000E-01   0.00000000000000E+00   0.00000000000000E+00   1.35384693664496E-08
     -1.33601850077312E-08   1.78284358718384E-10  -1.48787240571761E-30   0.00000000000000E+00   0.00000000000000E+00
      0.00000000000000E+00   0.00000000000000E+00  -4.47045836239951E-12  -1.73813901472826E-10  -1.78284359835226E-10
      4.11281803206493E-31
      5.26666666666667E-02
      7.90000000000000E-01   7.90000000000000E-01   0.00000000000000E+00   0.00000000000000E+00   1.35390180267947E-08
     -1.33098867067755E-08   2.29131320019174E-10   1.87496116167666E-30   0.00000000000000E+00   0.00000000000000E+00
      0.00000000000000E+00   0.00000000000000E+00  -4.87370864444790E-12  -2.24257610985303E-10  -2.29131319629751E-10
      9.43528842650191E-31
      6.26666666666667E-02
      9.40000000000000E-01   9.40000000000000E-01   0.00000000000000E+00   0.00000000000000E+00   1.35394832581304E-08
     -1.32606183387406E-08   2.78864919389790E-10   1.30642455136180E-30   0.00000000000000E+00   0.00000000000000E+00
      0.00000000000000E+00   0.00000000000000E+00  -5.18757285368141E-12  -2.73677347542127E-10  -2.78864920395808E-10
     -1.69351330732086E-30
      7.26666666666667E-02
      1.09000000000000E+00   1.09000000000000E+00   0.00000000000000E+00   0.00000000000000E+00   1.35398969312081E-08
     -1.32122468666833E-08   3.27650064524848E-10  -2.26204991763571E-30   0.00000000000000E+00   0.00000000000000E+00
      0.00000000000000E+00   0.00000000000000E+00  -5.44750902589569E-12  -3.22202555299890E-10  -3.27650064325786E-10
      3.38702661464171E-30
      8.26666666666667E-02
      1.24000000000000E+00   1.24000000000000E+00   0.00000000000000E+00   0.00000000000000E+00   1.35402763864881E-08
     -1.31646583032848E-08   3.75618083203217E-10  -1.20965236237204E-30   0.00000000000000E+00   0.00000000000000E+00
      0.00000000000000E+00   0.00000000000000E+00  -5.67296063272449E-12  -3.69945124112806E-10  -3.75618084745530E-10
     -4.69345116600351E-30
      9.26666666666667E-02
      1.39000000000000E+00   1.39000000000000E+00   0.00000000000000E+00   0.00000000000000E+00   1.35406319188533E-08
     -1.31177538571529E-08   4.22878061700310E-10  -4.23378326830214E-31   0.00000000000000E+00   0.00000000000000E+00
      0.00000000000000E+00   0.00000000000000E+00  -5.87551114726025E-12  -4.17002553098805E-10  -4.22878064246065E-10
      2.32253253575432E-30
      1.02666666666667E-01
      1.54000000000000E+00   1.54000000000000E+00   0.00000000000000E+00   0.00000000000000E+00   1.35409700755183E-08
     -1.30714472038608E-08   4.69522871657506E-10   4.71764421325095E-31   0.00000000000000E+00   0.00000000000000E+00
      0.00000000000000E+00   0.00000000000000E+00  -6.06249104668896E-12  -4.63460380337231E-10  -4.69522871383920E-10
      4.74183726049839E-30
      1.12666666666667E-01
      1.69000000000000E+00   1.69000000000000E+00   0.00000000000000E+00   0.00000000000000E+00   1.35412952661386E-08
     -1.30256624351596E-08   5.15632830978990E-10  -6.77405322928342E-31   0.00000000000000E+00   0.00000000000000E+00
      0.00000000000000E+00   0.00000000000000E+00  -6.23873961547295E-12  -5.09394089882166E-10  -5.15632829497639E-10
     -1.40803534980105E-29
      1.22666666666667E-01
      1.84000000000000E+00   1.84000000000000E+00   0.00000000000000E+00   0.00000000000000E+00   1.35416106150369E-08
     -1.29803324412539E-08   5.61278173783005E-10  -1.54835502383621E-30   0.00000000000000E+00   0.00000000000000E+00
      0.00000000000000E+00   0.00000000000000E+00  -6.40753938567550E-12  -5.54870636808988E-10  -5.61278176194663E-10
     -1.32577898915975E-29
      1.32666666666667E-01
      1.99000000000000E+00   1.99000000000000E+00   0.00000000000000E+00   0.00000000000000E+00   1.35419184456627E-08
     -1.29353976119989E-08   6.06520833663724E-10  -1.58464459470737E-30   0.00000000000000E+00   0.00000000000000E+00
      0.00000000000000E+00   0.00000000000000E+00  -6.57115257595552E-12  -5.99949684087462E-10  -6.06520836663418E-10
     -9.96753546594560E-30
      1.42666666666667E-01
      2.14000000000000E+00   2.14000000000000E+00   0.00000000000000E+00   0.00000000000000E+00   1.35422205768698E-08
     -1.28908048013307E-08   6.51415775539070E-10   8.70949700907868E-31   0.00000000000000E+00   0.00000000000000E+00
      0.00000000000000E+00   0.00000000000000E+00  -6.73115395895202E-12  -6.44684619870933E-10  -6.51415773829884E-10
      7.74177511918105E-30
      1.52666666666667E-01
      2.29000000000000E+00   2.29000000000000E+00   0.00000000000000E+00   0.00000000000000E+00   1.35425185194481E-08
     -1.28465064574336E-08   6.96012062014435E-10  -1.43948631122273E-30   0.00000000000000E+00   0.00000000000000E+00
      0.00000000000000E+00   0.00000000000000E+00  -6.88865215249723E-12  -6.89123407379149E-10  -6.96012059531646E-10
     -2.70962129171337E-30
      1.62666666666667E-01
      2.44000000000000E+00   2.44000000000000E+00   0.00000000000000E+00   0.00000000000000E+00   1.35428136179220E-08
     -1.28024598672017E-08   7.40353750720334E-10  -9.43528842650191E-31   0.00000000000000E+00   0.00000000000000E+00
      0.00000000000000E+00   0.00000000000000E+00  -7.04444451750514E-12  -7.33309306089132E-10  -7.40353750606637E-10
     -7.16114198524247E-30
      1.72666666666667E-01
      2.59000000000000E+00   2.59000000000000E+00   0.00000000000000E+00   0.00000000000000E+00   1.35431071603259E-08
     -1.27586265350965E-08   7.84480625229408E-10  -1.89915420892410E-30   0.00000000000000E+00   0.00000000000000E+00
      0.00000000000000E+00   0.00000000000000E+00  -7.19912900812136E-12  -7.77281491528628E-10  -7.84480620536750E-10
      1.42255117814952E-29
      1.82666666666667E-01
      2.74000000000000E+00   2.74000000000000E+00   0.00000000000000E+00   0.00000000000000E+00   1.35434004668633E-08
     -1.27149716904533E-08   8.28428776410076E-10   5.44343563067418E-31   0.00000000000000E+00   0.00000000000000E+00
      0.00000000000000E+00   0.00000000000000E+00  -7.35318599996980E-12  -8.21075592121081E-10  -8.28428778121051E-10
     -6.09664790635508E-30
      1.92666666666667E-01
      2.89000000000000E+00   2.89000000000000E+00   0.00000000000000E+00   0.00000000000000E+00   1.35436949668057E-08
     -1.26714637642220E-08   8.72231202583710E-10   2.60075257909988E-30   0.00000000000000E+00   0.00000000000000E+00
      0.00000000000000E+00   0.00000000000000E+00  -7.50685634697886E-12  -8.64724343265876E-10  -8.72231199612855E-10
      8.61272482008892E-30
      2.02666666666667E-01
      3.04000000000000E+00   3.04000000000000E+00   0.00000000000000E+00   0.00000000000000E+00   1.35439921919778E-08
     -1.26280741016677E-08   9.15918090310121E-10   6.04826181186020E-32   0.00000000000000E+00   0.00000000000000E+00
      0.00000000000000E+00   0.00000000000000E+00  -7.66273640264819E-12  -9.08255353562048E-10  -9.15918089964697E-10
     -9.67721889897631E-32
      2.12666666666667E-01
      3.19000000000000E+00   3.19000000000000E+00   0.00000000000000E+00   0.00000000000000E+00   1.35442939106100E-08
     -1.25847765314400E-08   9.59517379169989E-10  -1.27013498049064E-30   0.00000000000000E+00   0.00000000000000E+00
      0.00000000000000E+00   0.00000000000000E+00  -7.82199529761680E-12  -9.51695386511650E-10  -9.59517381809267E-10
     -2.42898194364305E-29
      2.22666666666667E-01
      3.34000000000000E+00   3.34000000000000E+00   0.00000000000000E+00   0.00000000000000E+00   1.35446021842854E-08
     -1.25415470961579E-08   1.00305508812749E-09   1.86286463805294E-30   0.00000000000000E+00   0.00000000000000E+00
      0.00000000000000E+00   0.00000000000000E+00  -7.98385932292416E-12  -9.95071230134187E-10  -1.00305508945711E-09
      3.70637483830793E-29
      2.32666666666667E-01
      3.49000000000000E+00   3.49000000000000E+00   0.00000000000000E+00   0.00000000000000E+00   1.35449192972570E-08
     -1.24983638382600E-08   1.04655545899699E-09  -3.74992232335332E-31   0.00000000000000E+00   0.00000000000000E+00
      0.00000000000000E+00   0.00000000000000E+00  -8.14921586514707E-12  -1.03840624059237E-09  -1.04655545645751E-09
     -1.07417129778637E-29
      2.42666666666667E-01
      3.64000000000000E+00   3.64000000000000E+00   0.00000000000000E+00   0.00000000000000E+00   1.35452478166256E-08
     -1.24552065724042E-08   1.09004124422141E-09  -1.29432802773808E-30   0.00000000000000E+00   0.00000000000000E+00
      0.00000000000000E+00   0.00000000000000E+00  -8.31881025972918E-12  -1.08172243745545E-09  -1.09004124771518E-09
     -1.83867159080550E-30
      2.52666666666667E-01
      3.79000000000000E+00   3.79000000000000E+00   0.00000000000000E+00   0.00000000000000E+00   1.35455905954004E-08
     -1.24120566515859E-08   1.13353394381446E-09  -3.02413090593010E-31   0.00000000000000E+00   0.00000000000000E+00
      0.00000000000000E+00   0.00000000000000E+00  -8.49342484564965E-12  -1.12504051439685E-09  -1.13353393924250E-09
      2.59349466492565E-29
      2.62666666666667E-01
      3.94000000000000E+00   3.94000000000000E+00   0.00000000000000E+00   0.00000000000000E+00   1.35459507749900E-08
     -1.23688968902907E-08   1.17705388469936E-09  -2.68542824446593E-30   0.00000000000000E+00   0.00000000000000E+00
      0.00000000000000E+00   0.00000000000000E+00  -8.67388169798880E-12  -1.16838000317506E-09  -1.17705388487305E-09
     -4.78054613609430E-29
      2.72666666666667E-01
      4.09000000000000E+00   4.09000000000000E+00   0.00000000000000E+00   0.00000000000000E+00   1.35463317843195E-08
     -1.23257113258506E-08   1.22062045846892E-09   4.23378326830214E-31   0.00000000000000E+00   0.00000000000000E+00
      0.00000000000000E+00   0.00000000000000E+00  -8.86104459597134E-12  -1.21175941469980E-09  -1.22062045929577E-09
      2.70962129171337E-30
      2.82666666666667E-01
      4.24000000000000E+00   4.24000000000000E+00   0.00000000000000E+00   0.00000000000000E+00   1.35467373370892E-08
     -1.22824851533326E-08   1.26425218375658E-09  -1.41529326397529E-30   0.00000000000000E+00   0.00000000000000E+00
      0.00000000000000E+00   0.00000000000000E+00  -9.05582055631918E-12  -1.25519636150837E-09  -1.26425218206468E-09
      1.23868401906897E-29
      2.92666666666667E-01
      4.39000000000000E+00   4.39000000000000E+00   0.00000000000000E+00   0.00000000000000E+00   1.35471714284518E-08
     -1.22392046046173E-08   1.30796682383453E-09  -1.57254807108365E-31   0.00000000000000E+00   0.00000000000000E+00
      0.00000000000000E+00   0.00000000000000E+00  -9.25916113900798E-12  -1.29870766536460E-09  -1.30796682650361E-09
      4.31603962894344E-29
      3.02666666666667E-01
      4.54000000000000E+00   4.54000000000000E+00   0.00000000000000E+00   0.00000000000000E+00   1.35476383321183E-08
     -1.21958568122159E-08   1.35178151990236E-09  -3.62895708711612E-32   0.00000000000000E+00   0.00000000000000E+00
      0.00000000000000E+00   0.00000000000000E+00  -9.47206364548544E-12  -1.34230945309213E-09  -1.35178151673762E-09
      1.45158283484645E-29
      3.12666666666667E-01
      4.69000000000000E+00   4.69000000000000E+00   0.00000000000000E+00   0.00000000000000E+00   1.35481425986483E-08
     -1.21524297821647E-08   1.39571281648356E-09  -2.54026996098128E-30   0.00000000000000E+00   0.00000000000000E+00
      0.00000000000000E+00   0.00000000000000E+00  -9.69557226763120E-12  -1.38601724319457E-09  -1.39571281546220E-09
      2.18705147116865E-29
      3.22666666666667E-01
      4.84000000000000E+00   4.84000000000000E+00   0.00000000000000E+00   0.00000000000000E+00   1.35486890554524E-08
     -1.21089122530018E-08   1.43977680245059E-09  -2.41930472474408E-31   0.00000000000000E+00   0.00000000000000E+00
      0.00000000000000E+00   0.00000000000000E+00  -9.93077920172940E-12  -1.42984602531648E-09  -1.43977680451821E-09
      1.58706389943212E-29
      3.32666666666667E-01
      4.99000000000000E+00   4.99000000000000E+00   0.00000000000000E+00   0.00000000000000E+00   1.35492828088347E-08
     -1.20652936454093E-08   1.48398916342537E-09  -2.26204991763571E-30   0.00000000000000E+00   0.00000000000000E+00
      0.00000000000000E+00   0.00000000000000E+00  -1.01788257101142E-11  -1.47381033417209E-09  -1.48398915988221E-09
      2.92252010749085E-29
      3.42666666666667E-01
      5.14000000000000E+00   5.14000000000000E+00   0.00000000000000E+00   0.00000000000000E+00   1.35499292482486E-08
     -1.20215640293065E-08   1.52836521894215E-09   1.33061759860924E-30   0.00000000000000E+00   0.00000000000000E+00
      0.00000000000000E+00   0.00000000000000E+00  -1.04409030900911E-11  -1.51792431921660E-09  -1.52836522230669E-09
      4.68377394710454E-29
      3.52666666666667E-01
      5.29000000000000E+00   5.29000000000000E+00   0.00000000000000E+00   0.00000000000000E+00   1.35506340528211E-08
     -1.19777139883377E-08   1.57292006448340E-09  -2.27414644125943E-30   0.00000000000000E+00   0.00000000000000E+00
      0.00000000000000E+00   0.00000000000000E+00  -1.07182534925137E-11  -1.56220181105568E-09  -1.57292006454819E-09
      7.74177511918105E-31
      3.62666666666667E-01
      5.44000000000000E+00   5.44000000000000E+00   0.00000000000000E+00   0.00000000000000E+00   1.35514080318474E-08
     -1.19337330041104E-08   1.61767502773698E-09   1.05239755526367E-30   0.00000000000000E+00   0.00000000000000E+00
      0.00000000000000E+00   0.00000000000000E+00  -1.10121502643288E-11  -1.60666287466059E-09  -1.61767502492492E-09
      2.34188697355227E-29
      3.72666666666667E-01
      5.59000000000000E+00   5.59000000000000E+00   0.00000000000000E+00   0.00000000000000E+00   1.35522452772043E-08
     -1.18896167756754E-08   1.66262850152887E-09   2.66123519721849E-31   0.00000000000000E+00   0.00000000000000E+00
      0.00000000000000E+00   0.00000000000000E+00  -1.13239897109109E-11  -1.65130451431385E-09  -1.66262850402476E-09
      2.74833016730927E-29
      3.82666666666667E-01
      5.74000000000000E+00   5.74000000000000E+00   0.00000000000000E+00   0.00000000000000E+00   1.35531123637875E-08
     -1.18453708074977E-08   1.70774155628973E-09  -1.58464459470737E-30   0.00000000000000E+00   0.00000000000000E+00
      0.00000000000000E+00   0.00000000000000E+00  -1.16553438839033E-11  -1.69608620856946E-09  -1.70774155245336E-09
     -3.09671004767242E-30
      3.92666666666667E-01
      5.89000000000000E+00   5.89000000000000E+00   0.00000000000000E+00   0.00000000000000E+00   1.35540283153272E-08
     -1.18009833447372E-08   1.75304497059001E-09   1.37900369310412E-30   0.00000000000000E+00   0.00000000000000E+00
      0.00000000000000E+00   0.00000000000000E+00  -1.20076174545591E-11  -1.74103735273419E-09  -1.75304497018875E-09
      7.93531949716058E-30
      4.02666666666667E-01
      6.04000000000000E+00   6.04000000000000E+00   0.00000000000000E+00   0.00000000000000E+00   1.35550264588019E-08
     -1.17564381939648E-08   1.79858826483704E-09   1.01610798439251E-30   0.00000000000000E+00   0.00000000000000E+00
      0.00000000000000E+00   0.00000000000000E+00  -1.23821988239280E-11  -1.78620606791330E-09  -1.79858826673723E-09
      3.98701418637824E-29
      4.12666666666667E-01
      6.19000000000000E+00   6.19000000000000E+00   0.00000000000000E+00   0.00000000000000E+00   1.35561042988709E-08
     -1.17117317112022E-08   1.84437258766869E-09  -2.77010390983197E-30   0.00000000000000E+00   0.00000000000000E+00
      0.00000000000000E+00   0.00000000000000E+00  -1.27806811531024E-11  -1.83159190730271E-09  -1.84437258845581E-09
      5.57407808581036E-29
      4.22666666666667E-01
      6.34000000000000E+00   6.34000000000000E+00   0.00000000000000E+00   0.00000000000000E+00   1.35572680410055E-08
     -1.16668576897584E-08   1.89041035124708E-09  -1.22174888599576E-30   0.00000000000000E+00   0.00000000000000E+00
      0.00000000000000E+00   0.00000000000000E+00  -1.32046668987188E-11  -1.87720568876575E-09  -1.89041035566447E-09
     -2.20640590896660E-29
      4.32666666666667E-01
      6.49000000000000E+00   6.49000000000000E+00   0.00000000000000E+00   0.00000000000000E+00   1.35585242573942E-08
     -1.16218101274284E-08   1.93671412996585E-09  -1.16126626787716E-30   0.00000000000000E+00   0.00000000000000E+00
      0.00000000000000E+00   0.00000000000000E+00  -1.36558002799588E-11  -1.92305833176116E-09  -1.93671413204112E-09
      4.66441950930658E-29
      4.42666666666667E-01
      6.64000000000000E+00   6.64000000000000E+00   0.00000000000000E+00   0.00000000000000E+00   1.35598799065734E-08
     -1.15765832292942E-08   1.98329667727925E-09   1.77818897268690E-30   0.00000000000000E+00   0.00000000000000E+00
      0.00000000000000E+00   0.00000000000000E+00  -1.41357624904331E-11  -1.96916091313511E-09  -1.98329667562554E-09
     -3.98701418637824E-29
      4.52666666666667E-01
      6.79000000000000E+00   6.79000000000000E+00   0.00000000000000E+00   0.00000000000000E+00   1.35613423531669E-08
     -1.15311713650847E-08   2.03017098808217E-09   6.16922704809740E-31   0.00000000000000E+00   0.00000000000000E+00
      0.00000000000000E+00   0.00000000000000E+00  -1.46462657400219E-11  -2.01552472212803E-09  -2.03017098786805E-09
     -2.07092484438093E-29
      4.62666666666667E-01
      6.94000000000000E+00   6.94000000000000E+00   0.00000000000000E+00   0.00000000000000E+00   1.35629193877694E-08
     -1.14855690272097E-08   2.07735036055961E-09   1.01610798439251E-30   0.00000000000000E+00   0.00000000000000E+00
      0.00000000000000E+00   0.00000000000000E+00  -1.51890460146247E-11  -2.06216131495230E-09  -2.07735036096692E-09
     -5.14828045425540E-29
      4.72666666666667E-01
      7.09000000000000E+00   7.09000000000000E+00   0.00000000000000E+00   0.00000000000000E+00   1.35646192470234E-08
     -1.14397708233818E-08   2.12484842364159E-09  -1.88705768530038E-30   0.00000000000000E+00   0.00000000000000E+00
      0.00000000000000E+00   0.00000000000000E+00  -1.57658544490195E-11  -2.10908256928787E-09  -2.12484842373689E-09
     -7.68371180578719E-29
      4.82666666666667E-01
      7.24000000000000E+00   7.24000000000000E+00   0.00000000000000E+00   0.00000000000000E+00   1.35664506339565E-08
     -1.13937714479592E-08   2.17267918599728E-09  -1.25803845686692E-30   0.00000000000000E+00   0.00000000000000E+00
      0.00000000000000E+00   0.00000000000000E+00  -1.63784472193924E-11  -2.15630073903480E-09  -2.17267918625419E-09
      3.46444436583352E-29
      4.92666666666667E-01
      7.39000000000001E+00   7.39000000000001E+00   0.00000000000000E+00   0.00000000000000E+00   1.35684227386660E-08
     -1.13475656570670E-08   2.22085708159903E-09   1.23384540961948E-30   0.00000000000000E+00   0.00000000000000E+00
      0.00000000000000E+00   0.00000000000000E+00  -1.70285738781426E-11  -2.20382850965530E-09  -2.22085708353344E-09
     -5.03215382746768E-29
      5.02666666666667E-01
      7.54000000000000E+00   7.54000000000000E+00   0.00000000000000E+00   0.00000000000000E+00   1.35705452594652E-08
     -1.13011482434672E-08   2.26939701599800E-09   8.46756653660427E-32   0.00000000000000E+00   0.00000000000000E+00
      0.00000000000000E+00   0.00000000000000E+00  -1.77179640749077E-11  -2.25167905443491E-09  -2.26939701850982E-09
     -2.70962129171337E-30
      5.12666666666667E-01
      7.69000000000000E+00   7.69000000000000E+00   0.00000000000000E+00   0.00000000000000E+00   1.35728284246326E-08
     -1.12545140229877E-08   2.31831440164489E-09  -1.41529326397529E-30   0.00000000000000E+00   0.00000000000000E+00
      0.00000000000000E+00   0.00000000000000E+00  -1.84483126350697E-11  -2.29986609199301E-09  -2.31831440462808E-09
      2.70962129171337E-30
      5.22666666666667E-01
      7.84000000000000E+00   7.84000000000000E+00   0.00000000000000E+00   0.00000000000000E+00   1.35752830149493E-08
     -1.12076578053383E-08   2.36762520961098E-09  -9.07239271779029E-31   0.00000000000000E+00   0.00000000000000E+00
      0.00000000000000E+00   0.00000000000000E+00  -1.92212630008831E-11  -2.34840394537927E-09  -2.36762520838016E-09
      8.90304138705821E-30
      5.32666666666667E-01
      7.99000000000000E+00   7.99000000000000E+00   0.00000000000000E+00   0.00000000000000E+00   1.35779203872528E-08
     -1.11605743879623E-08   2.41734599929044E-09   3.08461352404870E-30   0.00000000000000E+00   0.00000000000000E+00
      0.00000000000000E+00   0.00000000000000E+00  -2.00383890813390E-11  -2.39730760310497E-09  -2.41734599218631E-09
     -6.73534435368751E-29
      5.42666666666667E-01
      8.14000000000000E+00   8.14000000000000E+00   0.00000000000000E+00   0.00000000000000E+00   1.35807524992971E-08
     -1.11132585409037E-08   2.46749395839340E-09  -1.94754030341898E-30   0.00000000000000E+00   0.00000000000000E+00
      0.00000000000000E+00   0.00000000000000E+00  -2.09011756052880E-11  -2.44659278247788E-09  -2.46749395808316E-09
      1.39351952145259E-29
      5.52666666666667E-01
      8.29000000000000E+00   8.29000000000000E+00   0.00000000000000E+00   0.00000000000000E+00   1.35837919362762E-08
     -1.10657049475335E-08   2.51808698874264E-09  -1.49996892934133E-30   0.00000000000000E+00   0.00000000000000E+00
      0.00000000000000E+00   0.00000000000000E+00  -2.18109971282626E-11  -2.49627599563659E-09  -2.51808699276485E-09
     -3.13541892326833E-29
      5.62666666666667E-01
      8.44000000000000E+00   8.44000000000000E+00   0.00000000000000E+00   0.00000000000000E+00   1.35870521682868E-08
     -1.10179081487149E-08   2.56914401957186E-09  -2.08060206327991E-30   0.00000000000000E+00   0.00000000000000E+00
      0.00000000000000E+00   0.00000000000000E+00  -2.27690949605412E-11  -2.54637492503680E-09  -2.56914401999734E-09
     -3.71605205720690E-29
      5.72666666666667E-01
      8.59000000000001E+00   8.59000000000001E+00   0.00000000000000E+00   0.00000000000000E+00   1.35905612261900E-08
     -1.09698579660706E-08   2.62070326011940E-09  -2.51607691373384E-30   0.00000000000000E+00   0.00000000000000E+00
      0.00000000000000E+00   0.00000000000000E+00  -2.37764980826628E-11  -2.59692675957712E-09  -2.62070325765978E-09
      3.87088755959053E-30
      5.82666666666667E-01
      8.74000000000001E+00   8.74000000000001E+00   0.00000000000000E+00   0.00000000000000E+00   1.35943135967969E-08
     -1.09215555625147E-08   2.67275803428217E-09  -6.16922704809740E-31   0.00000000000000E+00   0.00000000000000E+00
      0.00000000000000E+00   0.00000000000000E+00  -2.48341982142323E-11  -2.64792383507180E-09  -2.67275803328603E-09
      3.52250767922738E-29
      5.92666666666667E-01
      8.89000000000001E+00   8.89000000000001E+00   0.00000000000000E+00   0.00000000000000E+00   1.35982841023626E-08
     -1.08730087835438E-08   2.72527531881882E-09   3.72572927610588E-30   0.00000000000000E+00   0.00000000000000E+00
      0.00000000000000E+00   0.00000000000000E+00  -2.59430659685552E-11  -2.69933225267359E-09  -2.72527531864215E-09
     -8.16757275073601E-29
      6.02666666666667E-01
      9.04000000000000E+00   9.04000000000000E+00   0.00000000000000E+00   0.00000000000000E+00   1.36024656156180E-08
     -1.08242195524999E-08   2.77824606311813E-09   7.62080988294385E-31   0.00000000000000E+00   0.00000000000000E+00
      0.00000000000000E+00   0.00000000000000E+00  -2.71036721465652E-11  -2.75114239039494E-09  -2.77824606254150E-09
     -4.52893844472091E-29
      6.12666666666667E-01
      9.19000000000000E+00   9.19000000000000E+00   0.00000000000000E+00   0.00000000000000E+00   1.36068857152355E-08
     -1.07751783006401E-08   2.83170741459543E-09   8.70949700907868E-31   0.00000000000000E+00   0.00000000000000E+00
      0.00000000000000E+00   0.00000000000000E+00  -2.83162005577407E-11  -2.80339121342798E-09  -2.83170741398572E-09
      4.25797631554958E-30
      6.22666666666667E-01
      9.34000000000001E+00   9.34000000000001E+00   0.00000000000000E+00   0.00000000000000E+00   1.36116066067628E-08
     -1.07258639951717E-08   2.88574261159115E-09  -6.04826181186020E-31   0.00000000000000E+00   0.00000000000000E+00
      0.00000000000000E+00   0.00000000000000E+00  -2.95804314613392E-11  -2.85616218132432E-09  -2.88574261278566E-09
      3.17412779886423E-29
      6.32666666666667E-01
      9.49000000000001E+00   9.49000000000001E+00   0.00000000000000E+00   0.00000000000000E+00   1.36166464309082E-08
     -1.06762704261044E-08   2.94037600480376E-09   1.35481064585668E-30   0.00000000000000E+00   0.00000000000000E+00
      0.00000000000000E+00   0.00000000000000E+00  -3.08960381402717E-11  -2.90947996540949E-09  -2.94037600354976E-09
     -6.89017985607114E-29
      6.42666666666667E-01
      9.64000000000001E+00   9.64000000000001E+00   0.00000000000000E+00   0.00000000000000E+00   1.36220126698170E-08
     -1.06263950548035E-08   2.99561761501344E-09   1.16126626787716E-30   0.00000000000000E+00   0.00000000000000E+00
      0.00000000000000E+00   0.00000000000000E+00  -3.22624462925103E-11  -2.96335517052094E-09  -2.99561761681345E-09
      4.25797631554958E-30
      6.52666666666667E-01
      9.79000000000001E+00   9.79000000000001E+00   0.00000000000000E+00   0.00000000000000E+00   1.36277240404564E-08
     -1.05762316612478E-08   3.05149237920865E-09  -2.72171781533709E-30   0.00000000000000E+00   0.00000000000000E+00
      0.00000000000000E+00   0.00000000000000E+00  -3.36787268259422E-11  -3.01781365420517E-09  -3.05149238103111E-09
     -4.29668519114548E-29
      6.62666666666667E-01
      9.94000000000001E+00   9.94000000000001E+00   0.00000000000000E+00   0.00000000000000E+00   1.36338003313604E-08
     -1.05257737672998E-08   3.10802656406064E-09  -1.20965236237204E-30   0.00000000000000E+00   0.00000000000000E+00
      0.00000000000000E+00   0.00000000000000E+00  -3.51436276820105E-11  -3.07288293840737E-09  -3.10802656608938E-09
     -4.14184968876186E-29
      6.72666666666667E-01
      1.00900000000000E+01   1.00900000000000E+01   0.00000000000000E+00   0.00000000000000E+00   1.36402624981487E-08
     -1.04750145836706E-08   3.16524791447807E-09  -9.55625366273911E-31   0.00000000000000E+00   0.00000000000000E+00
      0.00000000000000E+00   0.00000000000000E+00  -3.66555728657401E-11  -3.12859234066012E-09  -3.16524791352586E-09
      5.30311595663902E-29
      6.82666666666667E-01