DF-ISE text

Info {
  version   = 1.0
  type      = xyplot
  datasets  = [
    "time"
    "ntype OuterVoltage" "ntype InnerVoltage" "ntype QuasiFermiPotential" "ntype DisplacementCurrent" "ntype eCurrent"
    "ntype hCurrent" "ntype TotalCurrent" "ntype Charge" "ptype OuterVoltage" "ptype InnerVoltage"
    "ptype QuasiFermiPotential" "ptype DisplacementCurrent" "ptype eCurrent" "ptype hCurrent" "ptype TotalCurrent"
    "ptype Charge" ]
  functions = [
    Time
    OuterVoltage InnerVoltage QuasiFermiPotential DisplacementCurrent eCurrent
    hCurrent TotalCurrent Charge OuterVoltage InnerVoltage
    QuasiFermiPotential DisplacementCurrent eCurrent hCurrent TotalCurrent
    Charge ]
}

Data {
      0.00000000000000E+00
      0.00000000000000E+00   0.00000000000000E+00   0.00000000000000E+00   0.00000000000000E+00   0.00000000000000E+00
      0.00000000000000E+00   0.00000000000000E+00   0.00000000000000E+00   0.00000000000000E+00   0.00000000000000E+00
      0.00000000000000E+00   0.00000000000000E+00   0.00000000000000E+00   0.00000000000000E+00   0.00000000000000E+00
      0.00000000000000E+00
      0.00000000000000E+00
      0.00000000000000E+00   0.00000000000000E+00   0.00000000000000E+00   0.00000000000000E+00   2.40091713225908E-08
      0.00000000000000E+00   2.40091713225908E-08   1.26656149189909E-22   0.00000000000000E+00   0.00000000000000E+00
      0.00000000000000E+00   0.00000000000000E+00   2.40091713225895E-08   0.00000000000000E+00   2.40091713225895E-08
      1.26656149189902E-22
      0.00000000000000E+00
      0.00000000000000E+00   0.00000000000000E+00   0.00000000000000E+00   0.00000000000000E+00  -5.98366270303793E-17
      0.00000000000000E+00  -5.98366270303793E-17  -1.40874076869062E-21   0.00000000000000E+00   0.00000000000000E+00
      0.00000000000000E+00   0.00000000000000E+00  -5.98368774765254E-17   0.00000000000000E+00  -5.98368774765254E-17
     -1.40874076869054E-21
      1.00000000000000E-02
      5.00000000000000E-01   5.00000000000000E-01   0.00000000000000E+00   0.00000000000000E+00   1.68051110565171E-01
      0.00000000000000E+00   1.68051110565171E-01   8.94334156160524E-16   0.00000000000000E+00   0.00000000000000E+00
      0.00000000000000E+00   0.00000000000000E+00  -1.68051110565170E-01   0.00000000000000E+00  -1.68051110565170E-01
     -8.94337060687055E-16
      2.00000000000000E-02
      1.00000000000000E+00   1.00000000000000E+00   0.00000000000000E+00   0.00000000000000E+00   3.36101835530040E-01
      0.00000000000000E+00   3.36101835530040E-01   1.78866671634958E-15   0.00000000000000E+00   0.00000000000000E+00
      0.00000000000000E+00   0.00000000000000E+00  -3.36101835530037E-01   0.00000000000000E+00  -3.36101835530037E-01
     -1.78866887297307E-15
      3.00000000000000E-02
      1.50000000000000E+00   1.50000000000000E+00   0.00000000000000E+00   0.00000000000000E+00   5.04152463916554E-01
      0.00000000000000E+00   5.04152463916554E-01   2.68299867501517E-15   0.00000000000000E+00   0.00000000000000E+00
      0.00000000000000E+00   0.00000000000000E+00  -5.04152463916552E-01   0.00000000000000E+00  -5.04152463916552E-01
     -2.68300021519650E-15
      4.00000000000000E-02
      2.00000000000000E+00   2.00000000000000E+00   0.00000000000000E+00   0.00000000000000E+00   6.72203055629932E-01
      0.00000000000000E+00   6.72203055629932E-01   3.57733041210262E-15   0.00000000000000E+00   0.00000000000000E+00
      0.00000000000000E+00   0.00000000000000E+00  -6.72203055629933E-01   0.00000000000000E+00  -6.72203055629933E-01
     -3.57733154872727E-15
      5.00000000000000E-02
      2.50000000000000E+00   2.50000000000000E+00   0.00000000000000E+00   0.00000000000000E+00   8.40253701302236E-01
      0.00000000000000E+00   8.40253701302236E-01   4.47166191220704E-15   0.00000000000000E+00   0.00000000000000E+00
      0.00000000000000E+00   0.00000000000000E+00  -8.40253701302237E-01   0.00000000000000E+00  -8.40253701302237E-01
     -4.47166330626885E-15
      6.00000000000000E-02
      3.00000000000000E+00   3.00000000000000E+00   0.00000000000000E+00   0.00000000000000E+00   1.00830613746378E+00
      0.00000000000000E+00   1.00830613746378E+00   5.36599026172723E-15   0.00000000000000E+00   0.00000000000000E+00
      0.00000000000000E+00   0.00000000000000E+00  -1.00830613746378E+00   0.00000000000000E+00  -1.00830613746378E+00
     -5.36600461943541E-15
      7.00000000000000E-02
      3.50000000000000E+00   3.50000000000000E+00   0.00000000000000E+00   0.00000000000000E+00   1.17637600120443E+00
      0.00000000000000E+00   1.17637600120443E+00   6.26028914213289E-15   0.00000000000000E+00   0.00000000000000E+00
      0.00000000000000E+00   0.00000000000000E+00  -1.17637600120442E+00   0.00000000000000E+00  -1.17637600120442E+00
     -6.26043725388358E-15
      8.00000000000000E-02
      4.00000000000000E+00   4.00000000000000E+00   0.00000000000000E+00   0.00000000000000E+00   1.34453819663152E+00
      0.00000000000000E+00   1.34453819663152E+00   7.15443350443142E-15   0.00000000000000E+00   0.00000000000000E+00
      0.00000000000000E+00   0.00000000000000E+00  -1.34453819663152E+00   0.00000000000000E+00  -1.34453819663152E+00
     -7.15535017405320E-15
      9.00000000000000E-02
      4.50000000000000E+00   4.50000000000000E+00   0.00000000000000E+00   0.00000000000000E+00   1.51302781056197E+00
      0.00000000000000E+00   1.51302781056197E+00   8.04803384119328E-15   0.00000000000000E+00   0.00000000000000E+00
      0.00000000000000E+00   0.00000000000000E+00  -1.51302781056197E+00   0.00000000000000E+00  -1.51302781056197E+00
     -8.05195742437106E-15
      1.00000000000000E-01
      5.00000000000000E+00   5.00000000000000E+00   0.00000000000000E+00   0.00000000000000E+00   1.68240112450843E+00
      0.00000000000000E+00   1.68240112450843E+00   8.94018203052253E-15   0.00000000000000E+00   0.00000000000000E+00
      0.00000000000000E+00   0.00000000000000E+00  -1.68240112450843E+00   0.00000000000000E+00  -1.68240112450843E+00
     -8.95311670885161E-15
      1.10000000000000E-01
      5.50000000000000E+00   5.50000000000000E+00   0.00000000000000E+00   0.00000000000000E+00   1.85375202682426E+00
      0.00000000000000E+00   1.85375202682426E+00   9.82915346404589E-15   0.00000000000000E+00   0.00000000000000E+00
      0.00000000000000E+00   0.00000000000000E+00  -1.85375202682426E+00   0.00000000000000E+00  -1.85375202682426E+00
     -9.86441016782748E-15
      1.20000000000000E-01
      6.00000000000000E+00   6.00000000000000E+00   0.00000000000000E+00   0.00000000000000E+00   2.02900019309471E+00
      0.00000000000000E+00   2.02900019309471E+00   1.07121345939218E-14   0.00000000000000E+00   0.00000000000000E+00
      0.00000000000000E+00   0.00000000000000E+00  -2.02900019309471E+00   0.00000000000000E+00  -2.02900019309471E+00
     -1.07955301809598E-14
      1.30000000000000E-01
      6.50000000000000E+00   6.50000000000000E+00   0.00000000000000E+00   0.00000000000000E+00   2.21132077377631E+00
      0.00000000000000E+00   2.21132077377631E+00   1.15850746726583E-14   0.00000000000000E+00   0.00000000000000E+00
      0.00000000000000E+00   0.00000000000000E+00  -2.21132077377632E+00   0.00000000000000E+00  -2.21132077377632E+00
     -1.17621962198193E-14
      1.40000000000000E-01
      7.00000000000000E+00   7.00000000000000E+00   0.00000000000000E+00   0.00000000000000E+00   2.40588978092256E+00
      0.00000000000000E+00   2.40588978092256E+00   1.24429475668401E-14   0.00000000000000E+00   0.00000000000000E+00
      0.00000000000000E+00   0.00000000000000E+00  -2.40588978092255E+00   0.00000000000000E+00  -2.40588978092255E+00
     -1.27889917066610E-14
      1.50000000000000E-01
      7.50000000000000E+00   7.50000000000000E+00   0.00000000000000E+00   0.00000000000000E+00   2.62164469169772E+00
      0.00000000000000E+00   2.62164469169772E+00   1.32821192053094E-14   0.00000000000000E+00   0.00000000000000E+00
      0.00000000000000E+00   0.00000000000000E+00  -2.62164469169771E+00   0.00000000000000E+00  -2.62164469169771E+00
     -1.39138665919193E-14
      1.55000000000000E-01
      7.75000000000000E+00   7.75000000000000E+00   0.00000000000000E+00   0.00000000000000E+00   2.74333875888518E+00
      0.00000000000000E+00   2.74333875888518E+00   1.36983865052466E-14   0.00000000000000E+00   0.00000000000000E+00
      0.00000000000000E+00   0.00000000000000E+00  -2.74333875888522E+00   0.00000000000000E+00  -2.74333875888522E+00
     -1.45316609238162E-14
      1.57333333333333E-01
      7.86666666666667E+00   7.86666666666667E+00   0.00000000000000E+00   0.00000000000000E+00   2.80685144561270E+00
      0.00000000000000E+00   2.80685144561270E+00   1.38985024491488E-14   0.00000000000000E+00   0.00000000000000E+00
      0.00000000000000E+00   0.00000000000000E+00  -2.80685144561293E+00   0.00000000000000E+00  -2.80685144561293E+00
     -1.48391308064683E-14
      1.58422222222222E-01
      7.92111111111111E+00   7.92111111111111E+00   0.00000000000000E+00   0.00000000000000E+00   2.84122186661884E+00
      0.00000000000000E+00   2.84122186661884E+00   1.40009693708335E-14   0.00000000000000E+00   0.00000000000000E+00
      0.00000000000000E+00   0.00000000000000E+00  -2.84122186662684E+00   0.00000000000000E+00  -2.84122186662684E+00
     -1.49907634584282E-14
      1.59438518518519E-01
      7.97192592592592E+00   7.97192592592592E+00   0.00000000000000E+00   0.00000000000000E+00   2.94999372890059E+00
      0.00000000000000E+00   2.94999372890059E+00   1.42726583697600E-14   0.00000000000000E+00   0.00000000000000E+00
      0.00000000000000E+00   0.00000000000000E+00  -2.94999372890059E+00   0.00000000000000E+00  -2.94999372890059E+00
     -1.51887750945917E-14
      1.59845037037037E-01
      7.99225185185185E+00   7.99225185185185E+00   0.00000000000000E+00   0.00000000000000E+00   2.97343304133095E+00
      0.00000000000000E+00   2.97343304133095E+00   1.43288380493425E-14   0.00000000000000E+00   0.00000000000000E+00
      0.00000000000000E+00   0.00000000000000E+00  -2.97343304133362E+00   0.00000000000000E+00  -2.97343304133362E+00
     -1.52508809148711E-14
      1.60576770370370E-01
      8.02883851851852E+00   8.02883851851852E+00   0.00000000000000E+00   0.00000000000000E+00   3.01342904492190E+00
      0.00000000000000E+00   3.01342904492190E+00   1.44221833955214E-14   0.00000000000000E+00   0.00000000000000E+00
      0.00000000000000E+00   0.00000000000000E+00  -3.01342904492352E+00   0.00000000000000E+00  -3.01342904492352E+00
     -1.53626968814213E-14
      1.61942672592593E-01
      8.09713362962963E+00   8.09713362962963E+00   0.00000000000000E+00   0.00000000000000E+00   3.08819148827326E+00
      0.00000000000000E+00   3.08819148827326E+00   1.45870837916587E-14   0.00000000000000E+00   0.00000000000000E+00
      0.00000000000000E+00   0.00000000000000E+00  -3.08819148828323E+00   0.00000000000000E+00  -3.08819148828323E+00
     -1.55769070829332E-14
      1.64492356740741E-01
      8.22461783703704E+00   8.22461783703704E+00   0.00000000000000E+00   0.00000000000000E+00   3.24553730969035E+00
      0.00000000000000E+00   3.24553730969035E+00   1.48933074084954E-14   0.00000000000000E+00   0.00000000000000E+00
      0.00000000000000E+00   0.00000000000000E+00  -3.24553730969035E+00   0.00000000000000E+00  -3.24553730969035E+00
     -1.60123857585392E-14
      1.69081788207407E-01
      8.45408941037037E+00   8.45408941037037E+00   0.00000000000000E+00   0.00000000000000E+00   3.76481983912409E+00
      0.00000000000000E+00   3.76481983912409E+00   1.55888759541661E-14   0.00000000000000E+00   0.00000000000000E+00
      0.00000000000000E+00   0.00000000000000E+00  -3.76481983912411E+00   0.00000000000000E+00  -3.76481983912411E+00
     -1.71581071086303E-14
      1.69330382411852E-01
      8.46651912059259E+00   8.46651912059259E+00   0.00000000000000E+00   0.00000000000000E+00   3.84460839542883E+00
      0.00000000000000E+00   3.84460839542883E+00   1.56623834543564E-14   0.00000000000000E+00   0.00000000000000E+00
      0.00000000000000E+00   0.00000000000000E+00  -3.84460839542889E+00   0.00000000000000E+00  -3.84460839542889E+00
     -1.72958700389079E-14
      1.69442249803852E-01
      8.47211249019259E+00   8.47211249019259E+00   0.00000000000000E+00   0.00000000000000E+00   3.90116265926913E+00
      0.00000000000000E+00   3.90116265926913E+00   1.57099960765091E-14   0.00000000000000E+00   0.00000000000000E+00
      0.00000000000000E+00   0.00000000000000E+00  -3.90116265926920E+00   0.00000000000000E+00  -3.90116265926920E+00
     -1.73881263238511E-14
}
