DF-ISE text

Info {
  version   = 1.0
  type      = xyplot
  datasets  = [
    "time"
    "ntype OuterVoltage" "ntype InnerVoltage" "ntype QuasiFermiPotential" "ntype DisplacementCurrent" "ntype eCurrent"
    "ntype hCurrent" "ntype TotalCurrent" "ntype Charge" "ptype OuterVoltage" "ptype InnerVoltage"
    "ptype QuasiFermiPotential" "ptype DisplacementCurrent" "ptype eCurrent" "ptype hCurrent" "ptype TotalCurrent"
    "ptype Charge" ]
  functions = [
    Time
    OuterVoltage InnerVoltage QuasiFermiPotential DisplacementCurrent eCurrent
    hCurrent TotalCurrent Charge OuterVoltage InnerVoltage
    QuasiFermiPotential DisplacementCurrent eCurrent hCurrent TotalCurrent
    Charge ]
}

Data {
      0.00000000000000E+00
      0.00000000000000E+00   0.00000000000000E+00   0.00000000000000E+00   0.00000000000000E+00   9.61315200000022E-09
     -9.61315200000024E-09  -1.51212767415695E-23   7.45145855221176E-30   0.00000000000000E+00   0.00000000000000E+00
      0.00000000000000E+00   0.00000000000000E+00   4.23194733475567E-29  -3.40495035647666E-24  -3.40490803700331E-24
      8.22563606412987E-31
      0.00000000000000E+00
      0.00000000000000E+00   0.00000000000000E+00   0.00000000000000E+00   0.00000000000000E+00   1.40004891403174E-08
     -7.39953288482071E-09   6.60095625549665E-09  -2.44833638144101E-29   0.00000000000000E+00   0.00000000000000E+00
      0.00000000000000E+00   0.00000000000000E+00   4.16985567717146E-11   4.81298438890172E-13   4.21798552106048E-11
      2.23785687038827E-31
      0.00000000000000E+00
      0.00000000000000E+00   0.00000000000000E+00   0.00000000000000E+00   0.00000000000000E+00   2.19799932363170E-09
     -2.20245245627474E-09  -4.45313264303970E-12  -1.69351330732085E-29   0.00000000000000E+00   0.00000000000000E+00
      0.00000000000000E+00   0.00000000000000E+00   1.16658976251776E-11  -7.21276496175663E-12   4.45313266342094E-12
      7.18231090158398E-33
      5.00000000000000E-03
      7.50000000000000E-02   7.50000000000000E-02   0.00000000000000E+00   0.00000000000000E+00   2.22441576636220E-09
     -2.19952880369310E-09   2.48869626691066E-11   2.61284910272360E-30   0.00000000000000E+00   0.00000000000000E+00
      0.00000000000000E+00   0.00000000000000E+00   2.95115757734287E-13  -2.51820789742748E-11  -2.48869632165405E-11
      4.56643766795445E-31
      1.30000000000000E-02
      1.95000000000000E-01   1.95000000000000E-01   0.00000000000000E+00   0.00000000000000E+00   2.26396019968966E-09
     -2.19453249914066E-09   6.94277005490005E-11   2.29350087905739E-29   0.00000000000000E+00   0.00000000000000E+00
      0.00000000000000E+00   0.00000000000000E+00  -2.90247627630446E-12  -6.65252243304379E-11  -6.94277006067424E-11
      1.86891289986480E-30
      2.30000000000000E-02
      3.45000000000000E-01   3.45000000000000E-01   0.00000000000000E+00   0.00000000000000E+00   2.31159536963077E-09
     -2.18841859745819E-09   1.23176772172585E-10   3.62895708711612E-29   0.00000000000000E+00   0.00000000000000E+00
      0.00000000000000E+00   0.00000000000000E+00  -3.86648109021953E-12  -1.19310291504683E-10  -1.23176772594902E-10
     -8.83046224531589E-31
      3.30000000000000E-02
      4.95000000000000E-01   4.95000000000000E-01   0.00000000000000E+00   0.00000000000000E+00   2.35776135706143E-09
     -2.18252093096574E-09   1.75240426095698E-10  -2.23543756566353E-29   0.00000000000000E+00   0.00000000000000E+00
      0.00000000000000E+00   0.00000000000000E+00  -4.44257950034768E-12  -1.70797847404654E-10  -1.75240426905002E-10
      1.20965236237204E-30
      4.30000000000000E-02
      6.45000000000000E-01   6.45000000000000E-01   0.00000000000000E+00   0.00000000000000E+00   2.40277424052406E-09
     -2.17680584472725E-09   2.25968395796816E-10  -1.88705768530038E-29   0.00000000000000E+00   0.00000000000000E+00
      0.00000000000000E+00   0.00000000000000E+00  -4.85148361033494E-12  -2.21116911142654E-10  -2.25968394752989E-10
     -2.68542824446593E-30
      5.30000000000000E-02
      7.95000000000000E-01   7.95000000000000E-01   0.00000000000000E+00   0.00000000000000E+00   2.44683335816326E-09
     -2.17124803945596E-09   2.75585318707300E-10   1.79028549631062E-29   0.00000000000000E+00   0.00000000000000E+00
      0.00000000000000E+00   0.00000000000000E+00  -5.16863354800063E-12  -2.70416685265378E-10  -2.75585318813379E-10
     -9.50786756824423E-30
      6.30000000000000E-02
      9.45000000000000E-01   9.45000000000000E-01   0.00000000000000E+00   0.00000000000000E+00   2.49008375614698E-09
     -2.16582778836798E-09   3.24255967778996E-10   1.40319674035157E-29   0.00000000000000E+00   0.00000000000000E+00
      0.00000000000000E+00   0.00000000000000E+00  -5.43056914675986E-12  -3.18825399584627E-10  -3.24255968731387E-10
     -3.77411537060076E-30
      7.30000000000000E-02
      1.09500000000000E+00   1.09500000000000E+00   0.00000000000000E+00   0.00000000000000E+00   2.53264017036549E-09
     -2.16052891945073E-09   3.72111250914757E-10   7.16114198524247E-30   0.00000000000000E+00   0.00000000000000E+00
      0.00000000000000E+00   0.00000000000000E+00  -5.65724974651436E-12  -3.66454001706572E-10  -3.72111251453087E-10
      2.51607691373384E-30
      8.30000000000000E-02
      1.24500000000000E+00   1.24500000000000E+00   0.00000000000000E+00   0.00000000000000E+00   2.57459757613515E-09
     -2.15533780133507E-09   4.19259774800078E-10  -4.31603962894344E-29   0.00000000000000E+00   0.00000000000000E+00
      0.00000000000000E+00   0.00000000000000E+00  -5.86053296971028E-12  -4.13399243349154E-10  -4.19259776318864E-10
     -3.04832395317754E-30
      9.30000000000000E-02
      1.39500000000000E+00   1.39500000000000E+00   0.00000000000000E+00   0.00000000000000E+00   2.61603671035202E-09
     -2.15024273928371E-09   4.65793971068306E-10   2.12898815777479E-30   0.00000000000000E+00   0.00000000000000E+00
      0.00000000000000E+00   0.00000000000000E+00  -6.04790857888056E-12  -4.59746061994903E-10  -4.65793970573783E-10
     -2.99993785868266E-30
      1.03000000000000E-01
      1.54500000000000E+00   1.54500000000000E+00   0.00000000000000E+00   0.00000000000000E+00   2.65702737230731E-09
     -2.14523360123437E-09   5.11793771072934E-10   3.87088755959053E-30   0.00000000000000E+00   0.00000000000000E+00
      0.00000000000000E+00   0.00000000000000E+00  -6.22431602554506E-12  -5.05569454242121E-10  -5.11793770267666E-10
     -1.35481064585668E-29
      1.13000000000000E-01
      1.69500000000000E+00   1.69500000000000E+00   0.00000000000000E+00   0.00000000000000E+00   2.69763060680994E-09
     -2.14030152599447E-09   5.57329080815468E-10   5.41924258342674E-30   0.00000000000000E+00   0.00000000000000E+00
      0.00000000000000E+00   0.00000000000000E+00  -6.39310510410409E-12  -5.50935976345511E-10  -5.57329081449615E-10
     -6.29019228433460E-31
      1.23000000000000E-01
      1.84500000000000E+00   1.84500000000000E+00   0.00000000000000E+00   0.00000000000000E+00   2.73790026208021E-09
     -2.13543871421749E-09   6.02461547862716E-10  -1.13223461118023E-29   0.00000000000000E+00   0.00000000000000E+00
      0.00000000000000E+00   0.00000000000000E+00  -6.55658520715226E-12  -5.95904962660900E-10  -6.02461547868052E-10
     -1.54835502383621E-30
      1.33000000000000E-01
      1.99500000000000E+00   1.99500000000000E+00   0.00000000000000E+00   0.00000000000000E+00   2.77788416748872E-09
     -2.13063827442927E-09   6.47245893059452E-10   1.84834880970448E-29   0.00000000000000E+00   0.00000000000000E+00
      0.00000000000000E+00   0.00000000000000E+00  -6.71636469597160E-12  -6.40529528478064E-10  -6.47245893174036E-10
      1.35481064585668E-30
      1.43000000000000E-01
      2.14500000000000E+00   2.14500000000000E+00   0.00000000000000E+00   0.00000000000000E+00   2.81762506392380E-09
     -2.12589408033475E-09   6.91730983589052E-10  -9.29013014301726E-30   0.00000000000000E+00   0.00000000000000E+00
      0.00000000000000E+00   0.00000000000000E+00  -6.87357571159880E-12  -6.84857408121842E-10  -6.91730983833441E-10
     -7.35468636322200E-30
      1.53000000000000E-01
      2.29500000000000E+00   2.29500000000000E+00   0.00000000000000E+00   0.00000000000000E+00   2.85716136290127E-09
     -2.12120066560313E-09   7.35960697298144E-10   1.93544377979526E-29   0.00000000000000E+00   0.00000000000000E+00
      0.00000000000000E+00   0.00000000000000E+00  -7.02903119804586E-12  -7.28931666365474E-10  -7.35960697563520E-10
      1.26771567576590E-29
      1.63000000000000E-01
      2.44500000000000E+00   2.44500000000000E+00   0.00000000000000E+00   0.00000000000000E+00   2.89652778056372E-09
     -2.11655313108676E-09   7.79974649476953E-10  -3.31928608234888E-29   0.00000000000000E+00   0.00000000000000E+00
      0.00000000000000E+00   0.00000000000000E+00  -7.18333822324474E-12  -7.72791310153327E-10  -7.79974648376571E-10
      1.09352573558432E-29
      1.73000000000000E-01
      2.59500000000000E+00   2.59500000000000E+00   0.00000000000000E+00   0.00000000000000E+00   2.93575587417742E-09
     -2.11194707376271E-09   8.23808800414708E-10  -8.03209168615034E-30   0.00000000000000E+00   0.00000000000000E+00
      0.00000000000000E+00   0.00000000000000E+00  -7.33698095099401E-12  -8.16471818931857E-10  -8.23808799882851E-10
     -8.99981357604797E-30
      1.83000000000000E-01
      2.74500000000000E+00   2.74500000000000E+00   0.00000000000000E+00   0.00000000000000E+00   2.97487450448761E-09
     -2.10737851193735E-09   8.67495992550258E-10  -3.06767839097549E-29   0.00000000000000E+00   0.00000000000000E+00
      0.00000000000000E+00   0.00000000000000E+00  -7.49024356618584E-12  -8.60005748241304E-10  -8.67495991807490E-10
      1.12255739228125E-29
      1.93000000000000E-01
      2.89500000000000E+00   2.89500000000000E+00   0.00000000000000E+00   0.00000000000000E+00   3.01391016481390E-09
     -2.10284384283644E-09   9.11066321977456E-10   1.61609555612904E-29   0.00000000000000E+00   0.00000000000000E+00
      0.00000000000000E+00   0.00000000000000E+00  -7.64514223002079E-12  -9.03421179022104E-10  -9.11066321252125E-10
     -3.96765974858029E-30
      2.03000000000000E-01
      3.04500000000000E+00   3.04500000000000E+00   0.00000000000000E+00   0.00000000000000E+00   3.05288735197673E-09
     -2.09833978291252E-09   9.54547569064213E-10   3.84185590289360E-29   0.00000000000000E+00   0.00000000000000E+00
      0.00000000000000E+00   0.00000000000000E+00  -7.80372024247656E-12  -9.46743848904074E-10  -9.54547569146551E-10
      2.51607691373384E-30
      2.13000000000000E-01
      3.19500000000000E+00   3.19500000000000E+00   0.00000000000000E+00   0.00000000000000E+00   3.09182897105655E-09
     -2.09386332651697E-09   9.97965644539580E-10  -1.03546242219047E-29   0.00000000000000E+00   0.00000000000000E+00
      0.00000000000000E+00   0.00000000000000E+00  -7.96476173499417E-12  -9.90000883061668E-10  -9.97965644796662E-10
      2.70962129171337E-29
      2.23000000000000E-01
      3.34500000000000E+00   3.34500000000000E+00   0.00000000000000E+00   0.00000000000000E+00   3.13075639762775E-09
     -2.08941172347145E-09   1.04134467415630E-09   2.42898194364305E-29   0.00000000000000E+00   0.00000000000000E+00
      0.00000000000000E+00   0.00000000000000E+00  -8.12919433303220E-12  -1.03321547927980E-09  -1.04134467361283E-09
      1.57738668053314E-29
      2.33000000000000E-01
      3.49500000000000E+00   3.49500000000000E+00   0.00000000000000E+00   0.00000000000000E+00   3.16968975246085E-09
     -2.08498244607845E-09   1.08470730638240E-09   4.76119169829635E-29   0.00000000000000E+00   0.00000000000000E+00
      0.00000000000000E+00   0.00000000000000E+00  -8.29775276706347E-12  -1.07640955320678E-09  -1.08470730597385E-09
     -2.29350087905739E-29
      2.43000000000000E-01
      3.64500000000000E+00   3.64500000000000E+00   0.00000000000000E+00   0.00000000000000E+00   3.20864806440940E-09
     -2.08057315922217E-09   1.12807490518723E-09  -1.13223461118023E-29   0.00000000000000E+00   0.00000000000000E+00
      0.00000000000000E+00   0.00000000000000E+00  -8.47120802576981E-12  -1.11960369679882E-09  -1.12807490482459E-09
      3.98701418637824E-29
      2.53000000000000E-01
      3.79500000000000E+00   3.79500000000000E+00   0.00000000000000E+00   0.00000000000000E+00   3.24764941539640E-09
     -2.07618170441851E-09   1.17146771097789E-09  -9.58044670998655E-30   0.00000000000000E+00   0.00000000000000E+00
      0.00000000000000E+00   0.00000000000000E+00  -8.65037016331094E-12  -1.16281734180037E-09  -1.17146771196369E-09
     -1.45158283484645E-29
      2.63000000000000E-01
      3.94500000000000E+00   3.94500000000000E+00   0.00000000000000E+00   0.00000000000000E+00   3.28671106422167E-09
     -2.07180607356441E-09   1.21490499065725E-09   1.30642455136180E-29   0.00000000000000E+00   0.00000000000000E+00
      0.00000000000000E+00   0.00000000000000E+00  -8.83609030560820E-12  -1.20606890033910E-09  -1.21490499064470E-09
      1.78060827741164E-29
      2.73000000000000E-01
      4.09500000000000E+00   4.09500000000000E+00   0.00000000000000E+00   0.00000000000000E+00   3.32584955395696E-09
     -2.06744440449640E-09   1.25840514946056E-09  -3.38702661464171E-30   0.00000000000000E+00   0.00000000000000E+00
      0.00000000000000E+00   0.00000000000000E+00  -9.02926219655447E-12  -1.24937588690836E-09  -1.25840514910491E-09
      1.52900058603826E-29
      2.83000000000000E-01
      4.24500000000000E+00   4.24500000000000E+00   0.00000000000000E+00   0.00000000000000E+00   3.36508080598270E-09
     -2.06309495698747E-09   1.30198584899524E-09  -3.60960264931817E-29   0.00000000000000E+00   0.00000000000000E+00
      0.00000000000000E+00   0.00000000000000E+00  -9.23082349998684E-12  -1.29275502542117E-09  -1.30198584892115E-09
     -2.09027928217888E-29
      2.93000000000000E-01
      4.39500000000000E+00   4.39500000000000E+00   0.00000000000000E+00   0.00000000000000E+00   3.40442020389131E-09
     -2.05875610133700E-09   1.34566410255432E-09   1.48061449154338E-29   0.00000000000000E+00   0.00000000000000E+00
      0.00000000000000E+00   0.00000000000000E+00  -9.44175698444245E-12  -1.33622234443546E-09  -1.34566410141990E-09
      4.21926743995367E-29
      3.03000000000000E-01
      4.54500000000000E+00   4.54500000000000E+00   0.00000000000000E+00   0.00000000000000E+00   3.44388266920510E-09
     -2.05442631389889E-09   1.38945635530622E-09  -2.37091863024920E-29   0.00000000000000E+00   0.00000000000000E+00
      0.00000000000000E+00   0.00000000000000E+00  -9.66309165460621E-12  -1.37979326310286E-09  -1.38945635475747E-09
     -1.35481064585668E-30
      3.13000000000000E-01
      4.69500000000000E+00   4.69500000000000E+00   0.00000000000000E+00   0.00000000000000E+00   3.48348273117064E-09
     -2.05010415799154E-09   1.43337857317910E-09  -2.41930472474408E-29   0.00000000000000E+00   0.00000000000000E+00
      0.00000000000000E+00   0.00000000000000E+00  -9.89590384837447E-12  -1.42348266990086E-09  -1.43337857374924E-09
     -2.59349466492565E-29
      3.23000000000000E-01
      4.84500000000000E+00   4.84500000000000E+00   0.00000000000000E+00   0.00000000000000E+00   3.52323459174032E-09
     -2.04578827874733E-09   1.47744631299299E-09  -1.19029792457409E-29   0.00000000000000E+00   0.00000000000000E+00
      0.00000000000000E+00   0.00000000000000E+00  -1.01413182861525E-11  -1.46730499578407E-09  -1.47744631407022E-09
      1.39351952145259E-29
      3.33000000000000E-01
      4.99500000000000E+00   4.99500000000000E+00   0.00000000000000E+00   0.00000000000000E+00   3.56315218715479E-09
     -2.04147739485815E-09   1.52167479229664E-09   3.84185590289360E-29   0.00000000000000E+00   0.00000000000000E+00
      0.00000000000000E+00   0.00000000000000E+00  -1.04005090354761E-11  -1.51127428303840E-09  -1.52167479207388E-09
      3.03864673427856E-29
      3.43000000000000E-01
      5.14500000000000E+00   5.14500000000000E+00   0.00000000000000E+00   0.00000000000000E+00   3.60324924648132E-09
     -2.03717029408769E-09   1.56607895239364E-09  -2.31285531685534E-29   0.00000000000000E+00   0.00000000000000E+00
      0.00000000000000E+00   0.00000000000000E+00  -1.06747003365229E-11  -1.55540425084123E-09  -1.56607895117775E-09
     -1.91608934199731E-29
      3.53000000000000E-01
      5.29500000000000E+00   5.29500000000000E+00   0.00000000000000E+00   0.00000000000000E+00   3.64354356563448E-09
     -2.03286556215614E-09   1.61067800347834E-09   7.35468636322200E-30   0.00000000000000E+00   0.00000000000000E+00
      0.00000000000000E+00   0.00000000000000E+00  -1.09651531527141E-11  -1.59971285083022E-09  -1.61067800398294E-09
      3.87088755959053E-31
      3.63000000000000E-01
      5.44500000000000E+00   5.44500000000000E+00   0.00000000000000E+00   0.00000000000000E+00   3.68404252769123E-09
     -2.02856247211701E-09   1.65548005557422E-09  -9.96753546594560E-30   0.00000000000000E+00   0.00000000000000E+00
      0.00000000000000E+00   0.00000000000000E+00  -1.12732136205191E-11  -1.64420684300082E-09  -1.65548005662134E-09
      2.53543135153179E-29
      3.73000000000000E-01
      5.59500000000000E+00   5.59500000000000E+00   0.00000000000000E+00   0.00000000000000E+00   3.72470726491369E-09
     -2.02426316635692E-09   1.70044409855677E-09  -8.22563606412987E-30   0.00000000000000E+00   0.00000000000000E+00
      0.00000000000000E+00   0.00000000000000E+00  -1.16004396273453E-11  -1.68884365954725E-09  -1.70044409917459E-09
     -1.10320295448330E-29
      3.83000000000000E-01
      5.74500000000000E+00   5.74500000000000E+00   0.00000000000000E+00   0.00000000000000E+00   3.76555277251448E-09
     -2.01996647620748E-09   1.74558629630700E-09  -2.88381123189494E-29   0.00000000000000E+00   0.00000000000000E+00
      0.00000000000000E+00   0.00000000000000E+00  -1.19482624492886E-11  -1.73363803322410E-09  -1.74558629567339E-09
     -4.62571063371068E-29
      3.93000000000000E-01
      5.89500000000000E+00   5.89500000000000E+00   0.00000000000000E+00   0.00000000000000E+00   3.80663451295034E-09
     -2.01566882913510E-09   1.79096568381524E-09   1.32577898915975E-29   0.00000000000000E+00   0.00000000000000E+00
      0.00000000000000E+00   0.00000000000000E+00  -1.23180184322561E-11  -1.77864766462607E-09  -1.79096568305833E-09
      2.72897572951132E-29
      4.03000000000000E-01
      6.04500000000000E+00   6.04500000000000E+00   0.00000000000000E+00   0.00000000000000E+00   3.84795292302970E-09
     -2.01137005737425E-09   1.83658286565545E-09  -3.09671004767242E-30   0.00000000000000E+00   0.00000000000000E+00
      0.00000000000000E+00   0.00000000000000E+00  -1.27112812563133E-11  -1.82387158520621E-09  -1.83658286646253E-09
      3.90959643518643E-29
      4.13000000000000E-01
      6.19500000000000E+00   6.19500000000000E+00   0.00000000000000E+00   0.00000000000000E+00   3.88951927014892E-09
     -2.00706935874813E-09   1.88244991140080E-09  -2.51607691373384E-30   0.00000000000000E+00   0.00000000000000E+00
      0.00000000000000E+00   0.00000000000000E+00  -1.31296331263656E-11  -1.86932027906318E-09  -1.88244991218954E-09
      2.74833016730927E-29
      4.23000000000000E-01
      6.34500000000000E+00   6.34500000000000E+00   0.00000000000000E+00   0.00000000000000E+00   3.93134516605515E-09
     -2.00276594510221E-09   1.92857922095294E-09   1.94512099869424E-29   0.00000000000000E+00   0.00000000000000E+00
      0.00000000000000E+00   0.00000000000000E+00  -1.35746975079485E-11  -1.91500452302886E-09  -1.92857922053680E-09
      2.72897572951132E-29
      4.33000000000000E-01
      6.49500000000000E+00   6.49500000000000E+00   0.00000000000000E+00   0.00000000000000E+00   3.97344242362008E-09
     -1.99845904820441E-09   1.97498337541567E-09  -3.67734318161100E-30   0.00000000000000E+00   0.00000000000000E+00
      0.00000000000000E+00   0.00000000000000E+00  -1.40481352436664E-11  -1.96093523993368E-09  -1.97498337517735E-09
     -4.18055856435777E-29
      4.43000000000000E-01
      6.64500000000000E+00   6.64500000000000E+00   0.00000000000000E+00   0.00000000000000E+00   4.01582310152371E-09
     -1.99414790975622E-09   2.02167519176749E-09  -1.09352573558432E-29   0.00000000000000E+00   0.00000000000000E+00
      0.00000000000000E+00   0.00000000000000E+00  -1.45516388741675E-11  -2.00712355279455E-09  -2.02167519166872E-09
      5.99987571736531E-30
      4.53000000000000E-01
      6.79500000000000E+00   6.79500000000000E+00   0.00000000000000E+00   0.00000000000000E+00   4.05849954775315E-09
     -1.98983178371079E-09   2.06866776404236E-09  -2.22576034676455E-30   0.00000000000000E+00   0.00000000000000E+00
      0.00000000000000E+00   0.00000000000000E+00  -1.50869257168060E-11  -2.05358083852218E-09  -2.06866776423898E-09
      1.27545745088508E-28
      4.63000000000000E-01
      6.94500000000000E+00   6.94500000000000E+00   0.00000000000000E+00   0.00000000000000E+00   4.10148444149472E-09
     -1.98550993176745E-09   2.11597450972727E-09  -9.87076327695584E-30   0.00000000000000E+00   0.00000000000000E+00
      0.00000000000000E+00   0.00000000000000E+00  -1.56557295978663E-11  -2.10031878148731E-09  -2.11597451108517E-09
      3.58057099262124E-29
      4.73000000000000E-01
      7.09500000000000E+00   7.09500000000000E+00   0.00000000000000E+00   0.00000000000000E+00   4.14479083421637E-09
     -1.98118161562751E-09   2.16360921858887E-09  -1.24836123796794E-29   0.00000000000000E+00   0.00000000000000E+00
      0.00000000000000E+00   0.00000000000000E+00  -1.62597911446355E-11  -2.14734942727770E-09  -2.16360921842233E-09
      3.54186211702533E-29
      4.83000000000000E-01
      7.24500000000000E+00   7.24500000000000E+00   0.00000000000000E+00   0.00000000000000E+00   4.18843219019262E-09
     -1.97684610684330E-09   2.21158608334932E-09  -1.68383608842188E-29   0.00000000000000E+00   0.00000000000000E+00
      0.00000000000000E+00   0.00000000000000E+00  -1.69008465584855E-11  -2.19468523697071E-09  -2.21158608352919E-09
     -4.25797631554958E-30
      4.93000000000000E-01
      7.39500000000000E+00   7.39500000000000E+00   0.00000000000000E+00   0.00000000000000E+00   4.23242242571725E-09
     -1.97250266888150E-09   2.25991975683575E-09   6.77405322928342E-31   0.00000000000000E+00   0.00000000000000E+00
      0.00000000000000E+00   0.00000000000000E+00  -1.75806148100655E-11  -2.24233914224286E-09  -2.25991975705293E-09
      2.51607691373384E-29
      5.03000000000000E-01
      7.54500000000000E+00   7.54500000000000E+00   0.00000000000000E+00   0.00000000000000E+00   4.27677594868488E-09
     -1.96815056305928E-09   2.30862538562560E-09   1.79996271520959E-29   0.00000000000000E+00   0.00000000000000E+00
      0.00000000000000E+00   0.00000000000000E+00  -1.83007832233441E-11  -2.29032460163748E-09  -2.30862538486082E-09
      4.37410294233729E-29
      5.13000000000000E-01
      7.69500000000000E+00   7.69500000000000E+00   0.00000000000000E+00   0.00000000000000E+00   4.32150769834164E-09
     -1.96378904841588E-09   2.35771864992577E-09  -1.23868401906897E-29   0.00000000000000E+00   0.00000000000000E+00
      0.00000000000000E+00   0.00000000000000E+00  -1.90629914471794E-11  -2.33865565831669E-09  -2.35771864976387E-09
      5.45795145902264E-29
      5.23000000000000E-01
      7.84500000000000E+00   7.84500000000000E+00   0.00000000000000E+00   0.00000000000000E+00   4.36663318709963E-09
     -1.95941737399526E-09   2.40721581310437E-09  -1.64512721282597E-29   0.00000000000000E+00   0.00000000000000E+00
      0.00000000000000E+00   0.00000000000000E+00  -1.98688138519312E-11  -2.38734699963905E-09  -2.40721581349098E-09
     -3.83217868399462E-29
      5.33000000000000E-01
      7.99500000000000E+00   7.99500000000000E+00   0.00000000000000E+00   0.00000000000000E+00   4.41216853296130E-09
     -1.95503477437146E-09   2.45713375858984E-09  -2.28382366015841E-29   0.00000000000000E+00   0.00000000000000E+00
      0.00000000000000E+00   0.00000000000000E+00  -2.07197404340817E-11  -2.43641401889168E-09  -2.45713375932576E-09
     -3.48379880363147E-29
      5.43000000000000E-01
      8.14500000000000E+00   8.14500000000000E+00   0.00000000000000E+00   0.00000000000000E+00   4.45813050879937E-09
     -1.95064047312950E-09   2.50749003566987E-09  -1.75157662071471E-29   0.00000000000000E+00   0.00000000000000E+00
      0.00000000000000E+00   0.00000000000000E+00  -2.16171563663592E-11  -2.48587287960732E-09  -2.50749003597368E-09
      1.89673490419936E-29
      5.53000000000000E-01
      8.29500000000000E+00   8.29500000000000E+00   0.00000000000000E+00   0.00000000000000E+00   4.50453658485918E-09
     -1.94623368133852E-09   2.55830290352066E-09  -6.19342009534484E-30   0.00000000000000E+00   0.00000000000000E+00
      0.00000000000000E+00   0.00000000000000E+00  -2.25623203897294E-11  -2.53574058283551E-09  -2.55830290322524E-09
      1.54835502383621E-29
      5.63000000000000E-01
      8.44500000000000E+00   8.44500000000000E+00   0.00000000000000E+00   0.00000000000000E+00   4.55141849561015E-09
     -1.94181285081361E-09   2.60960564479654E-09  -1.66448165062393E-29   0.00000000000000E+00   0.00000000000000E+00
      0.00000000000000E+00   0.00000000000000E+00  -2.35562976840667E-11  -2.58604934795532E-09  -2.60960564563939E-09
      3.75476093280281E-29
      5.73000000000000E-01
      8.59500000000000E+00   8.59500000000000E+00   0.00000000000000E+00   0.00000000000000E+00   4.59878535024219E-09
     -1.93737770493551E-09   2.66140764530668E-09  -1.72254496401778E-29   0.00000000000000E+00   0.00000000000000E+00
      0.00000000000000E+00   0.00000000000000E+00  -2.46000592351725E-11  -2.63680758668638E-09  -2.66140764592155E-09
     -3.87088755959053E-31
      5.83000000000000E-01
      8.74500000000000E+00   8.74500000000000E+00   0.00000000000000E+00   0.00000000000000E+00   4.64660521455398E-09
     -1.93293021470812E-09   2.71367499984586E-09   1.11288017338228E-29   0.00000000000000E+00   0.00000000000000E+00
      0.00000000000000E+00   0.00000000000000E+00  -2.56945169669005E-11  -2.68798048283295E-09  -2.71367499979985E-09
      2.20640590896660E-29
      5.93000000000000E-01
      8.89500000000000E+00   8.89500000000000E+00   0.00000000000000E+00   0.00000000000000E+00   4.69486266400640E-09
     -1.92847142182329E-09   2.76639124218311E-09   8.22563606412987E-30   0.00000000000000E+00   0.00000000000000E+00
      0.00000000000000E+00   0.00000000000000E+00  -2.68403096617284E-11  -2.73955093249151E-09  -2.76639124215324E-09
     -4.14184968876186E-29
      6.03000000000000E-01
      9.04500000000001E+00   9.04500000000001E+00   0.00000000000000E+00   0.00000000000000E+00   4.74358204887485E-09
     -1.92400021154352E-09   2.81958183733133E-09   1.70319052621983E-29   0.00000000000000E+00   0.00000000000000E+00
      0.00000000000000E+00   0.00000000000000E+00  -2.80377068499201E-11  -2.79154413187059E-09  -2.81958183872051E-09
     -4.45152069352910E-29
      6.13000000000000E-01
      9.19500000000001E+00   9.19500000000001E+00   0.00000000000000E+00   0.00000000000000E+00   4.79283579356534E-09
     -1.91951292417039E-09   2.87332286939494E-09  -9.67721889897631E-32   0.00000000000000E+00   0.00000000000000E+00
      0.00000000000000E+00   0.00000000000000E+00  -2.92865651186290E-11  -2.84403630385050E-09  -2.87332286896913E-09
      3.94830531078234E-29
      6.23000000000000E-01
      9.34500000000000E+00   9.34500000000000E+00   0.00000000000000E+00   0.00000000000000E+00   4.84266755235420E-09
     -1.91500752332786E-09   2.92766002902634E-09   9.67721889897631E-30   0.00000000000000E+00   0.00000000000000E+00
      0.00000000000000E+00   0.00000000000000E+00  -3.05865562935926E-11  -2.89707347179935E-09  -2.92766002809294E-09
      1.12255739228125E-29
      6.33000000000000E-01
      9.49500000000000E+00   9.49500000000000E+00   0.00000000000000E+00   0.00000000000000E+00   4.89307965918125E-09
     -1.91048421328488E-09   2.98259544589636E-09  -1.35481064585668E-29   0.00000000000000E+00   0.00000000000000E+00
      0.00000000000000E+00   0.00000000000000E+00  -3.19372002507304E-11  -2.95065824473512E-09  -2.98259544498585E-09
      2.74833016730927E-29
      6.43000000000000E-01
      9.64500000000000E+00   9.64500000000000E+00   0.00000000000000E+00   0.00000000000000E+00   4.94409554309238E-09
     -1.90594207577815E-09   3.03815346731422E-09   2.94187454528880E-29   0.00000000000000E+00   0.00000000000000E+00
      0.00000000000000E+00   0.00000000000000E+00  -3.33376462701881E-11  -3.00481582118903E-09  -3.03815346745922E-09
     -4.52893844472091E-29
      6.53000000000000E-01
      9.79500000000001E+00   9.79500000000001E+00   0.00000000000000E+00   0.00000000000000E+00   4.99573988592581E-09
     -1.90138014950305E-09   3.09435973642276E-09  -1.71286774511881E-29   0.00000000000000E+00   0.00000000000000E+00
      0.00000000000000E+00   0.00000000000000E+00  -3.47867258916759E-11  -3.05957300973968E-09  -3.09435973563136E-09
     -1.39351952145259E-29
      6.63000000000000E-01
      9.94500000000001E+00   9.94500000000001E+00   0.00000000000000E+00   0.00000000000000E+00   5.04803874637255E-09
     -1.89679744026064E-09   3.15124130611191E-09  -1.16126626787716E-30   0.00000000000000E+00   0.00000000000000E+00
      0.00000000000000E+00   0.00000000000000E+00  -3.62829503789735E-11  -3.11495835547292E-09  -3.15124130585190E-09
      1.70319052621983E-29
      6.73000000000000E-01
      1.00950000000000E+01   1.00950000000000E+01   0.00000000000000E+00   0.00000000000000E+00   5.10101969035093E-09
     -1.89219289794948E-09   3.20882679240145E-09  -1.50964614824031E-29   0.00000000000000E+00   0.00000000000000E+00
      0.00000000000000E+00   0.00000000000000E+00  -3.78245117423197E-11  -3.17100227995636E-09  -3.20882679169868E-09
      0.00000000000000E+00
      6.83000000000000E-01