DF-ISE text

Info {
  version   = 1.0
  type      = xyplot
  datasets  = [
    "time"
    "ntype OuterVoltage" "ntype InnerVoltage" "ntype QuasiFermiPotential" "ntype DisplacementCurrent" "ntype eCurrent"
    "ntype hCurrent" "ntype TotalCurrent" "ntype Charge" "ptype OuterVoltage" "ptype InnerVoltage"
    "ptype QuasiFermiPotential" "ptype DisplacementCurrent" "ptype eCurrent" "ptype hCurrent" "ptype TotalCurrent"
    "ptype Charge" ]
  functions = [
    Time
    OuterVoltage InnerVoltage QuasiFermiPotential DisplacementCurrent eCurrent
    hCurrent TotalCurrent Charge OuterVoltage InnerVoltage
    QuasiFermiPotential DisplacementCurrent eCurrent hCurrent TotalCurrent
    Charge ]
}

Data {
      0.00000000000000E+00
      0.00000000000000E+00   0.00000000000000E+00   0.00000000000000E+00   0.00000000000000E+00  -2.33009580844075E-24
      2.33009576067067E-24  -4.77700766731155E-32   1.16126626787716E-30   0.00000000000000E+00   0.00000000000000E+00
      0.00000000000000E+00   0.00000000000000E+00   4.23098450148043E-29  -3.43044301043785E-24  -3.43040070059283E-24
      4.53619635889515E-31
      0.00000000000000E+00
      0.00000000000000E+00   0.00000000000000E+00   0.00000000000000E+00   0.00000000000000E+00  -7.78707131265512E-21
      1.74641160574858E-20   9.67704474483069E-21   7.93531949716058E-30   0.00000000000000E+00   0.00000000000000E+00
      0.00000000000000E+00   0.00000000000000E+00   1.61996804383123E-23  -3.11542306142918E-24   1.30842573768831E-23
     -1.82052680536992E-30
      0.00000000000000E+00
      0.00000000000000E+00   0.00000000000000E+00   0.00000000000000E+00   0.00000000000000E+00  -1.37060136792564E-24
      4.46292734560833E-19   4.46291363959465E-19   5.49182172516906E-30   0.00000000000000E+00   0.00000000000000E+00
      0.00000000000000E+00   0.00000000000000E+00   7.76285597556128E-28   1.16300887686288E-26   1.24063743661850E-26
      1.63303068920225E-31
      1.00000000000000E-02
      2.00000000000000E-02   2.00000000000000E-02   0.00000000000000E+00   0.00000000000000E+00   7.47113235510908E-15
      1.60212890536076E-13   1.67684022891185E-13  -2.68542824446593E-30   0.00000000000000E+00   0.00000000000000E+00
      0.00000000000000E+00   0.00000000000000E+00  -1.35194494293063E-14  -1.54165746879141E-13  -1.67685196308447E-13
     -7.98370559165546E-31
      2.00000000000000E-02
      4.00000000000000E-02   4.00000000000000E-02   0.00000000000000E+00   0.00000000000000E+00   2.06981296362817E-14
      4.38480975182361E-13   4.59179104818643E-13  -1.40077743562682E-29   0.00000000000000E+00   0.00000000000000E+00
      0.00000000000000E+00   0.00000000000000E+00  -3.67155882388493E-14  -4.22461218517203E-13  -4.59176806756052E-13
     -8.34660130036707E-31
      3.00000000000000E-02
      6.00000000000000E-02   6.00000000000000E-02   0.00000000000000E+00   0.00000000000000E+00   4.37288630827372E-14
      9.18344219390012E-13   9.62073082472749E-13  -6.67728104029366E-30   0.00000000000000E+00   0.00000000000000E+00
      0.00000000000000E+00   0.00000000000000E+00  -7.62771628998429E-14  -8.85796730057748E-13  -9.62073892957591E-13
     -1.84471985261736E-31
      4.00000000000000E-02
      8.00000000000000E-02   8.00000000000000E-02   0.00000000000000E+00   0.00000000000000E+00   8.23852983085824E-14
      1.72478216517320E-12   1.80716746348178E-12   2.44349777199152E-30   0.00000000000000E+00   0.00000000000000E+00
      0.00000000000000E+00   0.00000000000000E+00  -1.41782987307235E-13  -1.66538258036859E-12  -1.80716556767583E-12
     -3.35678530558241E-31
      5.00000000000000E-02
      1.00000000000000E-01   1.00000000000000E-01   0.00000000000000E+00   0.00000000000000E+00   1.43756956635062E-13
      3.02538834473464E-12   3.16914530136971E-12   1.47577588209389E-30   0.00000000000000E+00   0.00000000000000E+00
      0.00000000000000E+00   0.00000000000000E+00  -2.44839179077500E-13  -2.92430797438056E-12  -3.16914715345806E-12
     -5.56440086691138E-31
      6.00000000000000E-02
      1.20000000000000E-01   1.20000000000000E-01   0.00000000000000E+00   0.00000000000000E+00   2.34322933753365E-13
      5.01285222182115E-12   5.24717515557451E-12  -4.57248592976631E-30   0.00000000000000E+00   0.00000000000000E+00
      0.00000000000000E+00   0.00000000000000E+00  -3.95940660046334E-13  -4.85123401058819E-12  -5.24717467063453E-12
     -3.17533745122660E-32
      7.00000000000000E-02
      1.40000000000000E-01   1.40000000000000E-01   0.00000000000000E+00   0.00000000000000E+00   3.56855008041130E-13
      7.86258678083066E-12   8.21944178887179E-12   5.56440086691138E-30   0.00000000000000E+00   0.00000000000000E+00
      0.00000000000000E+00   0.00000000000000E+00  -5.99355030960594E-13  -7.62008595941142E-12  -8.21944099037202E-12
     -3.59115545079199E-32
      8.00000000000000E-02
      1.60000000000000E-01   1.60000000000000E-01   0.00000000000000E+00   0.00000000000000E+00   5.07862368696169E-13
      1.16765698051746E-11   1.21844321738707E-11   2.41930472474408E-32   0.00000000000000E+00   0.00000000000000E+00
      0.00000000000000E+00   0.00000000000000E+00  -8.48974487036910E-13  -1.13354563209824E-11  -1.21844308080193E-11
      1.13404908972379E-32
      9.00000000000000E-02
      1.80000000000000E-01   1.80000000000000E-01   0.00000000000000E+00   0.00000000000000E+00   6.77938420180174E-13
      1.64431023234712E-11   1.71210407436513E-11  -8.08047778064522E-30   0.00000000000000E+00   0.00000000000000E+00
      0.00000000000000E+00   0.00000000000000E+00  -1.12901379926301E-12  -1.59920273118982E-11  -1.71210411111612E-11
     -2.70659716080744E-31
      1.00000000000000E-01
      2.00000000000000E-01   2.00000000000000E-01   0.00000000000000E+00   0.00000000000000E+00   8.55226294019530E-13
      2.20399180457196E-11   2.28951443397391E-11  -7.04017674900527E-30   0.00000000000000E+00   0.00000000000000E+00
      0.00000000000000E+00   0.00000000000000E+00  -1.41982500970852E-12  -2.14753191467009E-11  -2.28951441564094E-11
      1.60278938014295E-31
      1.10000000000000E-01
      2.20000000000000E-01   2.20000000000000E-01   0.00000000000000E+00   0.00000000000000E+00   1.02944154572069E-12
      2.82786573462965E-11   2.93080988920172E-11  -7.88693340266570E-30   0.00000000000000E+00   0.00000000000000E+00
      0.00000000000000E+00   0.00000000000000E+00  -1.70453547994168E-12  -2.76035612161835E-11  -2.93080966961252E-11
      1.14916974425344E-31
      1.20000000000000E-01
      2.40000000000000E-01   2.40000000000000E-01   0.00000000000000E+00   0.00000000000000E+00   1.19396818054110E-12
      3.49614503110243E-11   3.61554184915654E-11  -2.87897262244545E-30   0.00000000000000E+00   0.00000000000000E+00
      0.00000000000000E+00   0.00000000000000E+00  -1.97243302470104E-12  -3.41829888594627E-11  -3.61554218841637E-11
      3.47775054181961E-31
      1.30000000000000E-01
      2.60000000000000E-01   2.60000000000000E-01   0.00000000000000E+00   0.00000000000000E+00   1.34577159510803E-12
      4.19210365370369E-11   4.32668081321449E-11   2.24995339401199E-30   0.00000000000000E+00   0.00000000000000E+00
      0.00000000000000E+00   0.00000000000000E+00  -2.21873853825107E-12  -4.10480674553828E-11  -4.32668059936339E-11
     -9.67721889897631E-32
      1.40000000000000E-01
      2.80000000000000E-01   2.80000000000000E-01   0.00000000000000E+00   0.00000000000000E+00   1.48427460775379E-12
      4.90355508167466E-11   5.05198254245004E-11   3.65315013436356E-30   0.00000000000000E+00   0.00000000000000E+00
      0.00000000000000E+00   0.00000000000000E+00  -2.44269899678616E-12  -4.80771282893790E-11  -5.05198272861651E-11
     -1.16731452968902E-30
      1.50000000000000E-01
      3.00000000000000E-01   3.00000000000000E-01   0.00000000000000E+00   0.00000000000000E+00   1.61020942799068E-12
      5.62254140925855E-11   5.78356235205762E-11   3.38702661464171E-31   0.00000000000000E+00   0.00000000000000E+00
      0.00000000000000E+00   0.00000000000000E+00  -2.64567502246916E-12  -5.51899512122330E-11  -5.78356262347022E-11
      9.07239271779029E-32
      1.60000000000000E-01
      3.20000000000000E-01   3.20000000000000E-01   0.00000000000000E+00   0.00000000000000E+00   1.72483438882816E-12
      6.34427574456988E-11   6.51675918345270E-11  -1.98382987429014E-30   0.00000000000000E+00   0.00000000000000E+00
      0.00000000000000E+00   0.00000000000000E+00  -2.82985063692252E-12  -6.23377415989799E-11  -6.51675922359024E-11
      1.20360410056018E-30
      1.70000000000000E-01
      3.40000000000000E-01   3.40000000000000E-01   0.00000000000000E+00   0.00000000000000E+00   1.82950840701813E-12
      7.06606298379380E-11   7.24901382449561E-11  -1.27255428521539E-29   0.00000000000000E+00   0.00000000000000E+00
      0.00000000000000E+00   0.00000000000000E+00  -2.99754069280031E-12  -6.94925953731619E-11  -7.24901360659622E-11
     -3.20557876028590E-31
      1.80000000000000E-01
      3.60000000000000E-01   3.60000000000000E-01   0.00000000000000E+00   0.00000000000000E+00   1.92550033906504E-12
      7.78647231068138E-11   7.97902234458789E-11  -6.21761314259228E-30   0.00000000000000E+00   0.00000000000000E+00
      0.00000000000000E+00   0.00000000000000E+00  -3.15088635455897E-12  -7.66393366749589E-11  -7.97902230295178E-11
      1.71165809275644E-30
      1.90000000000000E-01
      3.80000000000000E-01   3.80000000000000E-01   0.00000000000000E+00   0.00000000000000E+00   2.01392425054485E-12
      8.50479176609078E-11   8.70618419114527E-11  -1.93544377979526E-30   0.00000000000000E+00   0.00000000000000E+00
      0.00000000000000E+00   0.00000000000000E+00  -3.29175633226748E-12  -8.37700867138988E-11  -8.70618430461663E-11
      1.81447854355806E-31
      2.00000000000000E-01
      4.00000000000000E-01   4.00000000000000E-01   0.00000000000000E+00   0.00000000000000E+00   2.09573267686653E-12
      9.22069781221098E-11   9.43027107989763E-11   6.84663237102574E-30   0.00000000000000E+00   0.00000000000000E+00
      0.00000000000000E+00   0.00000000000000E+00  -3.42174149929261E-12  -9.08809693664270E-11  -9.43027108657196E-11
     -7.25791417423224E-32
      2.10000000000000E-01
      4.20000000000000E-01   4.20000000000000E-01   0.00000000000000E+00   0.00000000000000E+00   2.17173232691156E-12
      9.93406853149925E-11   1.01512417641904E-10  -4.59667897701375E-30   0.00000000000000E+00   0.00000000000000E+00
      0.00000000000000E+00   0.00000000000000E+00  -3.54218467808594E-12  -9.79702321714679E-11  -1.01512416849554E-10
     -1.24594193324320E-30
      2.20000000000000E-01
      4.40000000000000E-01   4.40000000000000E-01   0.00000000000000E+00   0.00000000000000E+00   2.24260579576965E-12
      1.06448834179608E-10   1.08691439975377E-10  -7.47565159945920E-30   0.00000000000000E+00   0.00000000000000E+00
      0.00000000000000E+00   0.00000000000000E+00  -3.65421901935334E-12  -1.05037219973995E-10  -1.08691438993348E-10
     -4.83860944948816E-31
      2.30000000000000E-01
      4.60000000000000E-01   4.60000000000000E-01   0.00000000000000E+00   0.00000000000000E+00   2.30893260113892E-12
      1.13531701831260E-10   1.15840634432399E-10  -1.12497669700600E-29   0.00000000000000E+00   0.00000000000000E+00
      0.00000000000000E+00   0.00000000000000E+00  -3.75880438241440E-12  -1.12081831767892E-10  -1.15840636150306E-10
      1.41529326397529E-30
      2.40000000000000E-01
      4.80000000000000E-01   4.80000000000000E-01   0.00000000000000E+00   0.00000000000000E+00   2.37120734326606E-12
      1.20589792439696E-10   1.22960999782962E-10   5.97568267011787E-30   0.00000000000000E+00   0.00000000000000E+00
      0.00000000000000E+00   0.00000000000000E+00  -3.85675839501556E-12  -1.19104240061753E-10  -1.22960998456768E-10
      1.71770635456830E-30
      2.50000000000000E-01
      5.00000000000000E-01   5.00000000000000E-01   0.00000000000000E+00   0.00000000000000E+00   2.42985465418360E-12
      1.27623675764567E-10   1.30053530418750E-10   7.23372112698479E-30   0.00000000000000E+00   0.00000000000000E+00
      0.00000000000000E+00   0.00000000000000E+00  -3.94878184450587E-12  -1.26104748578609E-10  -1.30053530423115E-10
     -2.41930472474408E-32
      2.60000000000000E-01
      5.20000000000000E-01   5.20000000000000E-01   0.00000000000000E+00   0.00000000000000E+00   2.48524127176726E-12
      1.34633957455902E-10   1.37119198727670E-10  -3.62895708711612E-30   0.00000000000000E+00   0.00000000000000E+00
      0.00000000000000E+00   0.00000000000000E+00  -4.03547908439753E-12  -1.33083721189691E-10  -1.37119200274089E-10
      1.33061759860924E-31
      2.70000000000000E-01
      5.40000000000000E-01   5.40000000000000E-01   0.00000000000000E+00   0.00000000000000E+00   2.53768574102143E-12
      1.41621238384280E-10   1.44158924125302E-10   1.04030103163995E-29   0.00000000000000E+00   0.00000000000000E+00
      0.00000000000000E+00   0.00000000000000E+00  -4.11737436825242E-12  -1.40041546879358E-10  -1.44158921247610E-10
      2.57655953185244E-30
      2.80000000000000E-01
      5.60000000000000E-01   5.60000000000000E-01   0.00000000000000E+00   0.00000000000000E+00   2.58746622305431E-12
      1.48586081507173E-10   1.51173547730227E-10   1.20965236237204E-31   0.00000000000000E+00   0.00000000000000E+00
      0.00000000000000E+00   0.00000000000000E+00  -4.19492495662684E-12  -1.46978622677807E-10  -1.51173547634434E-10
      4.14910760293609E-30
      2.90000000000000E-01
      5.80000000000000E-01   5.80000000000000E-01   0.00000000000000E+00   0.00000000000000E+00   2.63482681402547E-12
      1.55529049221361E-10   1.58163876035386E-10  -7.98370559165546E-31   0.00000000000000E+00   0.00000000000000E+00
      0.00000000000000E+00   0.00000000000000E+00  -4.26853169505949E-12  -1.53895345451598E-10  -1.58163877146657E-10
      2.95155176418778E-30
      3.00000000000000E-01
      6.00000000000000E-01   6.00000000000000E-01   0.00000000000000E+00   0.00000000000000E+00   2.67998269313517E-12
      1.62450672651408E-10   1.65130655344543E-10  -5.85471743388067E-30   0.00000000000000E+00   0.00000000000000E+00
      0.00000000000000E+00   0.00000000000000E+00  -4.33854761197561E-12  -1.60792108020488E-10  -1.65130655632463E-10
     -3.43541270913659E-30
      3.10000000000000E-01
      6.20000000000000E-01   6.20000000000000E-01   0.00000000000000E+00   0.00000000000000E+00   2.72312434709204E-12
      1.69351458377148E-10   1.72074582724240E-10  -1.23626471434422E-29   0.00000000000000E+00   0.00000000000000E+00
      0.00000000000000E+00   0.00000000000000E+00  -4.40528495970949E-12  -1.67669297371600E-10  -1.72074582331309E-10
     -1.83867159080550E-30
      3.20000000000000E-01
      6.40000000000000E-01   6.40000000000000E-01   0.00000000000000E+00   0.00000000000000E+00   2.76442106161903E-12
      1.76231894819634E-10   1.78996315881253E-10   8.95142748155309E-31   0.00000000000000E+00   0.00000000000000E+00
      0.00000000000000E+00   0.00000000000000E+00  -4.46902102315089E-12  -1.74527293884433E-10  -1.78996314907584E-10
     -6.53212275680901E-31
      3.30000000000000E-01
      6.60000000000000E-01   6.60000000000000E-01   0.00000000000000E+00   0.00000000000000E+00   2.80402382689079E-12
      1.83092448640029E-10   1.85896472466920E-10  -6.79824627653086E-30   0.00000000000000E+00   0.00000000000000E+00
      0.00000000000000E+00   0.00000000000000E+00  -4.53000294530696E-12  -1.81366471040952E-10  -1.85896473986259E-10
     -1.42738978759901E-30
      3.40000000000000E-01
      6.80000000000000E-01   6.80000000000000E-01   0.00000000000000E+00   0.00000000000000E+00   2.84206777073247E-12
      1.89933578720183E-10   1.92775646490916E-10  -7.40307245771688E-30   0.00000000000000E+00   0.00000000000000E+00
      0.00000000000000E+00   0.00000000000000E+00  -4.58845176238751E-12  -1.88187195367657E-10  -1.92775647130045E-10
      9.67721889897631E-32
      3.50000000000000E-01
      7.00000000000000E-01   7.00000000000000E-01   0.00000000000000E+00   0.00000000000000E+00   2.87867420841522E-12
      1.96755717740067E-10   1.99634391948482E-10  -2.10479511052735E-30   0.00000000000000E+00   0.00000000000000E+00
      0.00000000000000E+00   0.00000000000000E+00  -4.64456579834990E-12  -1.94989826488236E-10  -1.99634392286586E-10
     -2.44349777199152E-30
      3.60000000000000E-01
      7.20000000000000E-01   7.20000000000000E-01   0.00000000000000E+00   0.00000000000000E+00   2.91395237893588E-12
      2.03559286613976E-10   2.06473238992912E-10  -2.22576034676455E-30   0.00000000000000E+00   0.00000000000000E+00
      0.00000000000000E+00   0.00000000000000E+00  -4.69852353658546E-12  -2.01774717228547E-10  -2.06473240765133E-10
     -2.66123519721849E-31
      3.70000000000000E-01
      7.40000000000000E-01   7.40000000000000E-01   0.00000000000000E+00   0.00000000000000E+00   2.94800100738075E-12
      2.10344698815482E-10   2.13292699822862E-10   1.15158904897818E-29   0.00000000000000E+00   0.00000000000000E+00
      0.00000000000000E+00   0.00000000000000E+00  -4.75048606063298E-12  -2.08542213744285E-10  -2.13292699804918E-10
      9.91914937145072E-31
      3.80000000000000E-01
      7.60000000000000E-01   7.60000000000000E-01   0.00000000000000E+00   0.00000000000000E+00   2.98090922558917E-12
      2.17112346054781E-10   2.20093255280370E-10  -6.89501846552062E-30   0.00000000000000E+00   0.00000000000000E+00
      0.00000000000000E+00   0.00000000000000E+00  -4.80059914575584E-12  -2.15292655667561E-10  -2.20093254813317E-10
     -2.73381433896081E-30
      3.90000000000000E-01
      7.80000000000000E-01   7.80000000000000E-01   0.00000000000000E+00   0.00000000000000E+00   3.01275818527144E-12
      2.23862612639809E-10   2.26875370825081E-10   1.81447854355806E-30   0.00000000000000E+00   0.00000000000000E+00
      0.00000000000000E+00   0.00000000000000E+00  -4.84899504204101E-12  -2.22026376241057E-10  -2.26875371283098E-10
      1.52416197658877E-30
      4.00000000000000E-01
      8.00000000000000E-01   8.00000000000000E-01   0.00000000000000E+00   0.00000000000000E+00   3.04362163567741E-12
      2.30595874438294E-10   2.33639496073971E-10  -2.63704214997105E-30   0.00000000000000E+00   0.00000000000000E+00
      0.00000000000000E+00   0.00000000000000E+00  -4.89579402302511E-12  -2.28743702469302E-10  -2.33639496492327E-10
     -4.98376773297280E-30
      4.10000000000000E-01
      8.20000000000000E-01   8.20000000000000E-01   0.00000000000000E+00   0.00000000000000E+00   3.07356682741182E-12
      2.37312492257192E-10   2.40386059084604E-10   1.40077743562682E-29   0.00000000000000E+00   0.00000000000000E+00
      0.00000000000000E+00   0.00000000000000E+00  -4.94110571975883E-12  -2.35444955260562E-10  -2.40386060980320E-10
      3.33864052014683E-30
      4.20000000000000E-01
      8.40000000000000E-01   8.40000000000000E-01   0.00000000000000E+00   0.00000000000000E+00   3.10265521716109E-12
      2.44012821763677E-10   2.47115476980838E-10  -1.22416819072050E-29   0.00000000000000E+00   0.00000000000000E+00
      0.00000000000000E+00   0.00000000000000E+00  -4.98503028046303E-12  -2.42130449568305E-10  -2.47115479848768E-10
      2.44349777199152E-30
      4.30000000000000E-01
      8.60000000000000E-01   8.60000000000000E-01   0.00000000000000E+00   0.00000000000000E+00   3.13094308321119E-12
      2.50697213363638E-10   2.53828156446850E-10   4.20959022105470E-30   0.00000000000000E+00   0.00000000000000E+00
      0.00000000000000E+00   0.00000000000000E+00  -5.02765938105668E-12  -2.48800494530082E-10  -2.53828153911138E-10
     -2.56446300822872E-30
      4.40000000000000E-01
      8.80000000000000E-01   8.80000000000000E-01   0.00000000000000E+00   0.00000000000000E+00   3.15848206305984E-12
      2.57365987206083E-10   2.60524469269143E-10   2.99993785868266E-30   0.00000000000000E+00   0.00000000000000E+00
      0.00000000000000E+00   0.00000000000000E+00  -5.06907710860634E-12  -2.55455393603494E-10  -2.60524470712101E-10
      2.41930472474408E-30
      4.50000000000000E-01
      9.00000000000000E-01   9.00000000000000E-01   0.00000000000000E+00   0.00000000000000E+00   3.18531962603208E-12
      2.64019488901060E-10   2.67204808527092E-10  -3.74992232335332E-30   0.00000000000000E+00   0.00000000000000E+00
      0.00000000000000E+00   0.00000000000000E+00  -5.10936073606105E-12  -2.62095444699100E-10  -2.67204805435161E-10
     -2.56446300822872E-30
      4.60000000000000E-01
      9.20000000000000E-01   9.20000000000000E-01   0.00000000000000E+00   0.00000000000000E+00   3.21149948822702E-12
      2.70658023898767E-10   2.73869523386994E-10   1.81447854355806E-30   0.00000000000000E+00   0.00000000000000E+00
      0.00000000000000E+00   0.00000000000000E+00  -5.14858140363527E-12  -2.68720940310172E-10  -2.73869521713807E-10
     -6.79824627653086E-30
      4.70000000000000E-01
      9.40000000000001E-01   9.40000000000001E-01   0.00000000000000E+00   0.00000000000000E+00   3.23706197995485E-12
      2.77281908106105E-10   2.80518970086060E-10   2.41930472474408E-32   0.00000000000000E+00   0.00000000000000E+00
      0.00000000000000E+00   0.00000000000000E+00  -5.18680471974952E-12  -2.75332167639263E-10  -2.80518972359012E-10
     -7.74177511918105E-31
      4.80000000000000E-01
      9.60000000000001E-01   9.60000000000001E-01   0.00000000000000E+00   0.00000000000000E+00   3.26204436973685E-12
      2.83891455448612E-10   2.87153499818349E-10   8.22563606412987E-31   0.00000000000000E+00   0.00000000000000E+00
      0.00000000000000E+00   0.00000000000000E+00  -5.22409129242120E-12  -2.81929408721601E-10  -2.87153500014022E-10
     -7.49984464670664E-31
      4.90000000000000E-01
      9.80000000000001E-01   9.80000000000001E-01   0.00000000000000E+00   0.00000000000000E+00   3.28648115220278E-12
      2.90486954780282E-10   2.93773435932485E-10   1.24110332379371E-29   0.00000000000000E+00   0.00000000000000E+00
      0.00000000000000E+00   0.00000000000000E+00  -5.26049720033086E-12  -2.88512940545328E-10  -2.93773437745659E-10
     -6.36277142607693E-30
      5.00000000000000E-01
      1.00000000000000E+00   1.00000000000000E+00   0.00000000000000E+00   0.00000000000000E+00   3.31040430420969E-12
      2.97068702529409E-10   3.00379106833619E-10  -1.23384540961948E-30   0.00000000000000E+00   0.00000000000000E+00
      0.00000000000000E+00   0.00000000000000E+00  -5.29607441140772E-12  -2.95083035168626E-10  -3.00379109580034E-10
      2.97574481143522E-30
      5.10000000000000E-01
      1.02000000000000E+00   1.02000000000000E+00   0.00000000000000E+00   0.00000000000000E+00   3.33384351289540E-12
      3.03636985646265E-10   3.06970829159161E-10   1.29916663718757E-29   0.00000000000000E+00   0.00000000000000E+00
      0.00000000000000E+00   0.00000000000000E+00  -5.33087115562559E-12  -3.01639959833810E-10  -3.06970830989436E-10
      5.00796078022024E-30
      5.20000000000000E-01
      1.04000000000000E+00   1.04000000000000E+00   0.00000000000000E+00   0.00000000000000E+00   3.35682637939262E-12
      3.10192081425496E-10   3.13548907804889E-10  -1.08626782141009E-29   0.00000000000000E+00   0.00000000000000E+00
      0.00000000000000E+00   0.00000000000000E+00  -5.36493225773792E-12  -3.08183977078418E-10  -3.13548909336156E-10
      4.35474850453934E-31
      5.30000000000000E-01
      1.06000000000000E+00   1.06000000000000E+00   0.00000000000000E+00   0.00000000000000E+00   3.37937860133371E-12
      3.16734268030632E-10   3.20113646631965E-10   2.56446300822872E-30   0.00000000000000E+00   0.00000000000000E+00
      0.00000000000000E+00   0.00000000000000E+00  -5.39829943487083E-12  -3.14715344843416E-10  -3.20113644278287E-10
     -4.35474850453934E-31
      5.40000000000000E-01
      1.08000000000000E+00   1.08000000000000E+00   0.00000000000000E+00   0.00000000000000E+00   3.40152413633025E-12
      3.23263807824615E-10   3.26665331960945E-10  -3.24186833115707E-30   0.00000000000000E+00   0.00000000000000E+00
      0.00000000000000E+00   0.00000000000000E+00  -5.43101156321254E-12  -3.21234316578537E-10  -3.26665328141750E-10
      4.79022335499328E-30
      5.50000000000000E-01
      1.10000000000000E+00   1.10000000000000E+00   0.00000000000000E+00   0.00000000000000E+00   3.42328534910382E-12
      3.29780964723049E-10   3.33204250072153E-10  -5.12892601645745E-30   0.00000000000000E+00   0.00000000000000E+00
      0.00000000000000E+00   0.00000000000000E+00  -5.46310491746112E-12  -3.27741141344879E-10  -3.33204246262340E-10
      4.93538163847792E-30
      5.60000000000000E-01
      1.12000000000000E+00   1.12000000000000E+00   0.00000000000000E+00   0.00000000000000E+00   3.44468314379582E-12
      3.36285994615458E-10   3.39730677759254E-10   6.12084095360252E-30   0.00000000000000E+00   0.00000000000000E+00
      0.00000000000000E+00   0.00000000000000E+00  -5.49461338620353E-12  -3.34236063914806E-10  -3.39730677301009E-10
      7.11275589074759E-30
      5.70000000000000E-01
      1.14000000000000E+00   1.14000000000000E+00   0.00000000000000E+00   0.00000000000000E+00   3.46573708348567E-12
      3.42779154971593E-10   3.46244892055079E-10  -3.70153622885844E-30   0.00000000000000E+00   0.00000000000000E+00
      0.00000000000000E+00   0.00000000000000E+00  -5.52556866598384E-12  -3.40719324869239E-10  -3.46244893535223E-10
     -3.43541270913659E-30
      5.80000000000000E-01
      1.16000000000000E+00   1.16000000000000E+00   0.00000000000000E+00   0.00000000000000E+00   3.48646549803275E-12
      3.49260696517229E-10   3.52747162015262E-10  -5.58859391415882E-30   0.00000000000000E+00   0.00000000000000E+00
      0.00000000000000E+00   0.00000000000000E+00  -5.55600043646329E-12  -3.47191160692406E-10  -3.52747161128869E-10
     -7.35468636322200E-30
      5.90000000000000E-01
      1.18000000000000E+00   1.18000000000000E+00   0.00000000000000E+00   0.00000000000000E+00   3.50688558179978E-12
      3.55730856132996E-10   3.59237741714796E-10  -1.37416508365464E-29   0.00000000000000E+00   0.00000000000000E+00
      0.00000000000000E+00   0.00000000000000E+00  -5.58593651877078E-12  -3.53651803864112E-10  -3.59237740382883E-10
     -2.99993785868266E-30
      6.00000000000000E-01
      1.20000000000000E+00   1.20000000000000E+00   0.00000000000000E+00   0.00000000000000E+00   3.52701348223568E-12
      3.62189872064077E-10   3.65716885546313E-10   5.29827734718953E-30   0.00000000000000E+00   0.00000000000000E+00
      0.00000000000000E+00   0.00000000000000E+00  -5.61540301888259E-12  -3.60101482949626E-10  -3.65716885968508E-10
      9.19335795402750E-31
      6.10000000000000E-01
      1.22000000000000E+00   1.22000000000000E+00   0.00000000000000E+00   0.00000000000000E+00   3.54686438029909E-12
      3.68637983729570E-10   3.72184848109869E-10   1.13465391590497E-29   0.00000000000000E+00   0.00000000000000E+00
      0.00000000000000E+00   0.00000000000000E+00  -5.64442445764413E-12  -3.66540422687208E-10  -3.72184847144852E-10
      2.90316566969289E-31
      6.20000000000000E-01
      1.24000000000000E+00   1.24000000000000E+00   0.00000000000000E+00   0.00000000000000E+00   3.56645256364772E-12
      3.75075416615343E-10   3.78641869178991E-10   2.10479511052735E-30   0.00000000000000E+00   0.00000000000000E+00
      0.00000000000000E+00   0.00000000000000E+00  -5.67302388885446E-12  -3.72968844073379E-10  -3.78641867962233E-10
     -5.27408429994209E-30
      6.30000000000000E-01
      1.26000000000000E+00   1.26000000000000E+00   0.00000000000000E+00   0.00000000000000E+00   3.58579149320461E-12
      3.81502399817936E-10   3.85088191311140E-10  -9.41109537925447E-30   0.00000000000000E+00   0.00000000000000E+00
      0.00000000000000E+00   0.00000000000000E+00  -5.70122300666480E-12  -3.79386964445962E-10  -3.85088187452627E-10
     -5.99987571736531E-30
      6.40000000000000E-01
      1.28000000000000E+00   1.28000000000000E+00   0.00000000000000E+00   0.00000000000000E+00   3.60489386409395E-12
      3.87919146729694E-10   3.91524040593788E-10   4.91118859123048E-30   0.00000000000000E+00   0.00000000000000E+00
      0.00000000000000E+00   0.00000000000000E+00  -5.72904224339779E-12  -3.85794997564985E-10  -3.91524039808382E-10
      3.77411537060076E-30
      6.50000000000000E-01
      1.30000000000000E+00   1.30000000000000E+00   0.00000000000000E+00   0.00000000000000E+00   3.62377166108747E-12
      3.94325882954459E-10   3.97949654615546E-10  -1.54835502383621E-30   0.00000000000000E+00   0.00000000000000E+00
      0.00000000000000E+00   0.00000000000000E+00  -5.75650085876703E-12  -3.92193153691469E-10  -3.97949654550236E-10
      1.02578520329149E-29
      6.60000000000000E-01
      1.32000000000000E+00   1.32000000000000E+00   0.00000000000000E+00   0.00000000000000E+00   3.64243620941382E-12
      4.00722818843973E-10   4.04365255053386E-10   2.22576034676455E-30   0.00000000000000E+00   0.00000000000000E+00
      0.00000000000000E+00   0.00000000000000E+00  -5.78361702136571E-12  -3.98581639664174E-10  -4.04365256685540E-10
      1.01610798439251E-29
      6.70000000000000E-01
      1.34000000000000E+00   1.34000000000000E+00   0.00000000000000E+00   0.00000000000000E+00   3.66089822132124E-12
      4.07110167331083E-10   4.10771065552405E-10  -1.57254807108365E-30   0.00000000000000E+00   0.00000000000000E+00
      0.00000000000000E+00   0.00000000000000E+00  -5.81040788319695E-12  -4.04960658974361E-10  -4.10771066857558E-10
     -1.64512721282597E-30
      6.80000000000000E-01
      1.36000000000000E+00   1.36000000000000E+00   0.00000000000000E+00   0.00000000000000E+00   3.67916783875216E-12
      4.13488134016982E-10   4.17167301855734E-10  -1.42738978759901E-30   0.00000000000000E+00   0.00000000000000E+00
      0.00000000000000E+00   0.00000000000000E+00  -5.83688964793290E-12  -4.11330411838603E-10  -4.17167301486536E-10
     -5.32247039443697E-30
      6.90000000000000E-01