DF-ISE text

Info {
  version   = 1.0
  type      = xyplot
  datasets  = [
    "time"
    "ntype OuterVoltage" "ntype InnerVoltage" "ntype QuasiFermiPotential" "ntype DisplacementCurrent" "ntype eCurrent"
    "ntype hCurrent" "ntype TotalCurrent" "ntype Charge" "ptype OuterVoltage" "ptype InnerVoltage"
    "ptype QuasiFermiPotential" "ptype DisplacementCurrent" "ptype eCurrent" "ptype hCurrent" "ptype TotalCurrent"
    "ptype Charge" ]
  functions = [
    Time
    OuterVoltage InnerVoltage QuasiFermiPotential DisplacementCurrent eCurrent
    hCurrent TotalCurrent Charge OuterVoltage InnerVoltage
    QuasiFermiPotential DisplacementCurrent eCurrent hCurrent TotalCurrent
    Charge ]
}

Data {
      0.00000000000000E+00
      0.00000000000000E+00   0.00000000000000E+00   0.00000000000000E+00   0.00000000000000E+00   1.44197279999992E-07
     -1.44197279999992E-07  -6.91258365328889E-23   1.16126626787716E-30   0.00000000000000E+00   0.00000000000000E+00
      0.00000000000000E+00   0.00000000000000E+00   4.23098450148043E-29  -3.43044301043785E-24  -3.43040070059283E-24
      4.53619635889515E-31
      0.00000000000000E+00
      0.00000000000000E+00   0.00000000000000E+00   0.00000000000000E+00   0.00000000000000E+00   3.00134676324196E+07
     -3.00134676324195E+07   9.72859661409976E-08   1.98382987429014E-29   0.00000000000000E+00   0.00000000000000E+00
      0.00000000000000E+00   0.00000000000000E+00   5.24953228661095E-10   3.26398174039584E-12   5.28217210401491E-10
      1.23384540961948E-30
      0.00000000000000E+00
      0.00000000000000E+00   0.00000000000000E+00   0.00000000000000E+00   0.00000000000000E+00   5.44569520703688E+14
     -5.44569520723456E+14  -1.97677512812445E+04   2.91734860171123E-25   0.00000000000000E+00   0.00000000000000E+00
      0.00000000000000E+00   0.00000000000000E+00   6.75915213873345E+09  -6.75915216385847E+09  -2.51250269183103E+01
      1.84811655645090E-26
}
