DF-ISE text

Info {
  version   = 1.0
  type      = xyplot
  datasets  = [
    "time"
    "ntype OuterVoltage" "ntype InnerVoltage" "ntype QuasiFermiPotential" "ntype DisplacementCurrent" "ntype eCurrent"
    "ntype hCurrent" "ntype TotalCurrent" "ntype Charge" "ptype OuterVoltage" "ptype InnerVoltage"
    "ptype QuasiFermiPotential" "ptype DisplacementCurrent" "ptype eCurrent" "ptype hCurrent" "ptype TotalCurrent"
    "ptype Charge" ]
  functions = [
    Time
    OuterVoltage InnerVoltage QuasiFermiPotential DisplacementCurrent eCurrent
    hCurrent TotalCurrent Charge OuterVoltage InnerVoltage
    QuasiFermiPotential DisplacementCurrent eCurrent hCurrent TotalCurrent
    Charge ]
}

Data {
      0.00000000000000E+00
      0.00000000000000E+00   0.00000000000000E+00   0.00000000000000E+00   0.00000000000000E+00  -3.86190697517445E-24
      3.86190670933337E-24  -2.65841080823278E-31  -2.41930472474408E-29   0.00000000000000E+00   0.00000000000000E+00
      0.00000000000000E+00   0.00000000000000E+00   4.23098450148043E-29  -3.43044301043785E-24  -3.43040070059283E-24
      4.53619635889515E-31
      0.00000000000000E+00
      0.00000000000000E+00   0.00000000000000E+00   0.00000000000000E+00   0.00000000000000E+00  -2.02516279058602E-24
      2.02869577136433E-24   3.53298077830975E-27   9.13529464063364E-29   0.00000000000000E+00   0.00000000000000E+00
      0.00000000000000E+00   0.00000000000000E+00  -3.44597530338706E-29  -3.42711860812603E-24  -3.42715306787906E-24
     -1.82052680536992E-30
      0.00000000000000E+00
      0.00000000000000E+00   0.00000000000000E+00   0.00000000000000E+00   0.00000000000000E+00  -6.90264472757625E-25
      5.57870406792729E-20   5.57863504148001E-20   8.17724996963498E-29   0.00000000000000E+00   0.00000000000000E+00
      0.00000000000000E+00   0.00000000000000E+00   2.84445614225150E-29   2.71210992510992E-26   2.71495438125218E-26
     -7.13694893799503E-31
      1.00000000000000E-02
      2.00000000000000E-02   2.00000000000000E-02   0.00000000000000E+00   0.00000000000000E+00   1.48375479055027E-13
      1.90575740647325E-14   1.67433053119760E-13  -7.62564849239333E-29   0.00000000000000E+00   0.00000000000000E+00
      0.00000000000000E+00   0.00000000000000E+00  -1.35221624588508E-14  -1.53911057664705E-13  -1.67433220123556E-13
      4.23378326830214E-32
      2.00000000000000E-02
      4.00000000000000E-02   4.00000000000000E-02   0.00000000000000E+00   0.00000000000000E+00   4.05865773595661E-13
      5.20562681842778E-14   4.57922041779938E-13   1.68383608842188E-29   0.00000000000000E+00   0.00000000000000E+00
      0.00000000000000E+00   0.00000000000000E+00  -3.66716886891942E-14  -4.21250222563577E-13  -4.57921911252771E-13
      2.20761556132897E-31
      3.00000000000000E-02
      6.00000000000000E-02   6.00000000000000E-02   0.00000000000000E+00   0.00000000000000E+00   8.48672624269491E-13
      1.08814165047715E-13   9.57486789317206E-13   2.92252010749085E-29   0.00000000000000E+00   0.00000000000000E+00
      0.00000000000000E+00   0.00000000000000E+00  -7.60180483044862E-14  -8.81468617587917E-13  -9.57486665892403E-13
      8.16515344601126E-32
      4.00000000000000E-02
      8.00000000000000E-02   8.00000000000000E-02   0.00000000000000E+00   0.00000000000000E+00   1.58914693169567E-12
      2.03674681409969E-13   1.79282161310563E-12  -2.32253253575432E-30   0.00000000000000E+00   0.00000000000000E+00
      0.00000000000000E+00   0.00000000000000E+00  -1.40835551292776E-13  -1.65198636177895E-12  -1.79282191307173E-12
     -3.02413090593010E-32
      5.00000000000000E-02
      1.00000000000000E-01   1.00000000000000E-01   0.00000000000000E+00   0.00000000000000E+00   2.77419988701422E-12
      3.55336155984876E-13   3.12953604299909E-12  -4.35474850453934E-30   0.00000000000000E+00   0.00000000000000E+00
      0.00000000000000E+00   0.00000000000000E+00  -2.42099480082619E-13  -2.88743635531609E-12  -3.12953583539871E-12
      1.19453170784239E-31
      6.00000000000000E-02
      1.20000000000000E-01   1.20000000000000E-01   0.00000000000000E+00   0.00000000000000E+00   4.56604152821446E-12
      5.84257520772221E-13   5.15029904898668E-12   3.43541270913659E-29   0.00000000000000E+00   0.00000000000000E+00
      0.00000000000000E+00   0.00000000000000E+00  -3.89322544646925E-13  -4.76097642802015E-12  -5.15029897266707E-12
     -1.42134152578715E-31
      7.00000000000000E-02
      1.40000000000000E-01   1.40000000000000E-01   0.00000000000000E+00   0.00000000000000E+00   7.10273508825930E-12
      9.07635952103843E-13   8.01037104036314E-12  -3.44508992803557E-29   0.00000000000000E+00   0.00000000000000E+00
      0.00000000000000E+00   0.00000000000000E+00  -5.85804610745805E-13  -7.42456659737435E-12  -8.01037120812016E-12
     -1.12648876245896E-31
      8.00000000000000E-02
      1.60000000000000E-01   1.60000000000000E-01   0.00000000000000E+00   0.00000000000000E+00   1.04529063795656E-11
      1.33349110767827E-12   1.17863974872438E-11  -6.51276831901106E-29   0.00000000000000E+00   0.00000000000000E+00
      0.00000000000000E+00   0.00000000000000E+00  -8.25240528709341E-13  -1.09611572615244E-11  -1.17863977902338E-11
      5.74584872126719E-32
      9.00000000000000E-02
      1.80000000000000E-01   1.80000000000000E-01   0.00000000000000E+00   0.00000000000000E+00   1.45906324753605E-11
      1.85734557113140E-12   1.64479780464919E-11   5.08053992196256E-29   0.00000000000000E+00   0.00000000000000E+00
      0.00000000000000E+00   0.00000000000000E+00  -1.09289743338044E-12  -1.53550809388532E-11  -1.64479783722336E-11
     -1.27013498049064E-31
      1.00000000000000E-01
      2.00000000000000E-01   2.00000000000000E-01   0.00000000000000E+00   0.00000000000000E+00   1.94059612017057E-11
      2.46442722247189E-12   2.18703884241776E-11  -3.18380501776321E-29   0.00000000000000E+00   0.00000000000000E+00
      0.00000000000000E+00   0.00000000000000E+00  -1.37097896021909E-12  -2.04994096351698E-11  -2.18703885953889E-11
      2.04128836150282E-31
      1.10000000000000E-01
      2.20000000000000E-01   2.20000000000000E-01   0.00000000000000E+00   0.00000000000000E+00   2.47443704067628E-11
      3.13377104861529E-12   2.78781414553781E-11   4.74183726049839E-30   0.00000000000000E+00   0.00000000000000E+00
      0.00000000000000E+00   0.00000000000000E+00  -1.64426757089397E-12  -2.62338737393098E-11  -2.78781413102038E-11
     -3.90112886864983E-31
      1.20000000000000E-01
      2.40000000000000E-01   2.40000000000000E-01   0.00000000000000E+00   0.00000000000000E+00   3.04471612812772E-11
      3.84540181218109E-12   3.42925630934583E-11   2.73865294841030E-29   0.00000000000000E+00   0.00000000000000E+00
      0.00000000000000E+00   0.00000000000000E+00  -1.90289633154473E-12  -3.23896671555354E-11  -3.42925634870801E-11
     -7.56032726482525E-32
      1.30000000000000E-01
      2.60000000000000E-01   2.60000000000000E-01   0.00000000000000E+00   0.00000000000000E+00   3.63809708380783E-11
      4.58209395499105E-12   4.09630647930694E-11   9.48367452099679E-30   0.00000000000000E+00   0.00000000000000E+00
      0.00000000000000E+00   0.00000000000000E+00  -2.14216303781946E-12  -3.88209021359067E-11  -4.09630651737262E-11
      3.59871577805682E-31
      1.40000000000000E-01
      2.80000000000000E-01   2.80000000000000E-01   0.00000000000000E+00   0.00000000000000E+00   4.24468113984368E-11
      5.33157936429241E-12   4.77783907627292E-11  -2.59349466492565E-29   0.00000000000000E+00   0.00000000000000E+00
      0.00000000000000E+00   0.00000000000000E+00  -2.36097752359133E-12  -4.54174133749267E-11  -4.77783908985181E-11
      3.08461352404870E-31
      1.50000000000000E-01
      3.00000000000000E-01   3.00000000000000E-01   0.00000000000000E+00   0.00000000000000E+00   4.85780123731402E-11
      6.08602075182023E-12   5.46640331249604E-11  -1.05481685998842E-29   0.00000000000000E+00   0.00000000000000E+00
      0.00000000000000E+00   0.00000000000000E+00  -2.56025635062239E-12  -5.21037771088272E-11  -5.46640334594496E-11
     -3.02413090593010E-31
      1.60000000000000E-01
      3.20000000000000E-01   3.20000000000000E-01   0.00000000000000E+00   0.00000000000000E+00   5.47354764462852E-11
      6.83826077330034E-12   6.15737372195855E-11  -1.79996271520959E-29   0.00000000000000E+00   0.00000000000000E+00
      0.00000000000000E+00   0.00000000000000E+00  -2.74178735281495E-12  -5.88319497627284E-11  -6.15737371155434E-11
      5.44343563067418E-31
      1.70000000000000E-01
      3.40000000000000E-01   3.40000000000000E-01   0.00000000000000E+00   0.00000000000000E+00   6.08955557060229E-11
      7.58500118298557E-12   6.84805568890085E-11   2.50639969483487E-29   0.00000000000000E+00   0.00000000000000E+00
      0.00000000000000E+00   0.00000000000000E+00  -2.90758281264089E-12  -6.55729738793008E-11  -6.84805566919417E-11
     -6.95550108363923E-31
      1.80000000000000E-01
      3.60000000000000E-01   3.60000000000000E-01   0.00000000000000E+00   0.00000000000000E+00   6.70439505631318E-11
      8.32599535787034E-12   7.53699459210022E-11   2.11931093887581E-29   0.00000000000000E+00   0.00000000000000E+00
      0.00000000000000E+00   0.00000000000000E+00  -3.05957363734463E-12  -7.23103722752153E-11  -7.53699459125600E-11
     -1.39110021672784E-31
      1.90000000000000E-01
      3.80000000000000E-01   3.80000000000000E-01   0.00000000000000E+00   0.00000000000000E+00   7.31739513086735E-11
      9.06052591275605E-12   8.22344772214296E-11  -8.32240825311963E-29   0.00000000000000E+00   0.00000000000000E+00
      0.00000000000000E+00   0.00000000000000E+00  -3.19948101385579E-12  -7.90349962438690E-11  -8.22344772577248E-11
     -5.86681395750439E-31
      2.00000000000000E-01
      4.00000000000000E-01   4.00000000000000E-01   0.00000000000000E+00   0.00000000000000E+00   7.92824562645749E-11
      9.78832793133021E-12   8.90707841959051E-11   1.42255117814952E-29   0.00000000000000E+00   0.00000000000000E+00
      0.00000000000000E+00   0.00000000000000E+00  -3.32879313702273E-12  -8.57419912676006E-11  -8.90707844046233E-11
     -1.31852107498552E-30
      2.10000000000000E-01
      4.20000000000000E-01   4.20000000000000E-01   0.00000000000000E+00   0.00000000000000E+00   8.53683125075043E-11
      1.05093733997277E-11   9.58776859072320E-11   4.31603962894344E-29   0.00000000000000E+00   0.00000000000000E+00
      0.00000000000000E+00   0.00000000000000E+00  -3.44877986236815E-12  -9.24289064312285E-11  -9.58776862935967E-11
      2.05640901603247E-31
      2.20000000000000E-01
      4.40000000000000E-01   4.40000000000000E-01   0.00000000000000E+00   0.00000000000000E+00   9.14313704646085E-11
      1.12237528588777E-11   1.02655123323486E-10  -1.39351952145259E-29   0.00000000000000E+00   0.00000000000000E+00
      0.00000000000000E+00   0.00000000000000E+00  -3.56052103599354E-12  -9.90946021798145E-11  -1.02655123215808E-10
      1.64512721282597E-30
      2.30000000000000E-01
      4.60000000000000E-01   4.60000000000000E-01   0.00000000000000E+00   0.00000000000000E+00   9.74719670260899E-11
      1.19316093177317E-11   1.09403576343822E-10   1.80963993410857E-29   0.00000000000000E+00   0.00000000000000E+00
      0.00000000000000E+00   0.00000000000000E+00  -3.66493648543826E-12  -1.05738639712848E-10  -1.09403576198286E-10
     -4.95957468572536E-31
      2.40000000000000E-01
      4.80000000000000E-01   4.80000000000000E-01   0.00000000000000E+00   0.00000000000000E+00   1.03490652809060E-10
      1.26331086022894E-11   1.16123761411349E-10   6.58050885130389E-30   0.00000000000000E+00   0.00000000000000E+00
      0.00000000000000E+00   0.00000000000000E+00  -3.76281305337889E-12  -1.12360948064554E-10  -1.16123761117933E-10
     -3.02413090593010E-31
      2.50000000000000E-01
      5.00000000000000E-01   5.00000000000000E-01   0.00000000000000E+00   0.00000000000000E+00   1.09488053486535E-10
      1.33284201724861E-11   1.22816473659021E-10  -2.63220354052156E-29   0.00000000000000E+00   0.00000000000000E+00
      0.00000000000000E+00   0.00000000000000E+00  -3.85482741347678E-12  -1.18961646058762E-10  -1.22816473472239E-10
      2.62494562634733E-30
      2.60000000000000E-01
      5.20000000000000E-01   5.20000000000000E-01   0.00000000000000E+00   0.00000000000000E+00   1.15464802521302E-10
      1.40177109116822E-11   1.29482513432984E-10   8.99981357604797E-30   0.00000000000000E+00   0.00000000000000E+00
      0.00000000000000E+00   0.00000000000000E+00  -3.94156477787221E-12  -1.25540948529180E-10  -1.29482513307053E-10
     -2.54026996098128E-31
      2.70000000000000E-01
      5.40000000000000E-01   5.40000000000000E-01   0.00000000000000E+00   0.00000000000000E+00   1.21421510869686E-10
      1.47011405821347E-11   1.36122651451820E-10   1.19997514347306E-29   0.00000000000000E+00   0.00000000000000E+00
      0.00000000000000E+00   0.00000000000000E+00  -4.02353406558370E-12  -1.32099117523602E-10  -1.36122651589186E-10
     -1.72980287819202E-30
      2.80000000000000E-01
      5.60000000000000E-01   5.60000000000000E-01   0.00000000000000E+00   0.00000000000000E+00   1.27358755236071E-10
      1.53788618484598E-11   1.42737617084530E-10  -8.15789553183703E-29   0.00000000000000E+00   0.00000000000000E+00
      0.00000000000000E+00   0.00000000000000E+00  -4.10118017756379E-12  -1.38636437165442E-10  -1.42737617343006E-10
     -7.86274035541826E-31
      2.90000000000000E-01
      5.80000000000000E-01   5.80000000000000E-01   0.00000000000000E+00   0.00000000000000E+00   1.33277075274935E-10
      1.60510199160645E-11   1.49328095191000E-10   2.69026685391541E-29   0.00000000000000E+00   0.00000000000000E+00
      0.00000000000000E+00   0.00000000000000E+00  -4.17489395961026E-12  -1.45153200812079E-10  -1.49328094771690E-10
     -2.29833948850687E-30
      3.00000000000000E-01
      6.00000000000000E-01   6.00000000000000E-01   0.00000000000000E+00   0.00000000000000E+00   1.39176974826250E-10
      1.67177507502541E-11   1.55894725576504E-10   6.96759760726295E-30   0.00000000000000E+00   0.00000000000000E+00
      0.00000000000000E+00   0.00000000000000E+00  -4.24502033243003E-12  -1.51649704546925E-10  -1.55894724879355E-10
     -1.86286463805294E-30
      3.10000000000000E-01
      6.20000000000000E-01   6.20000000000000E-01   0.00000000000000E+00   0.00000000000000E+00   1.45058924783257E-10
      1.73791843368786E-11   1.62438109120136E-10  -4.64506507150863E-30   0.00000000000000E+00   0.00000000000000E+00
      0.00000000000000E+00   0.00000000000000E+00  -4.31186496912030E-12  -1.58126243909644E-10  -1.62438108878764E-10
      6.14503400084996E-30
      3.20000000000000E-01
      6.40000000000000E-01   6.40000000000000E-01   0.00000000000000E+00   0.00000000000000E+00   1.50923366421330E-10
      1.80354456510438E-11   1.68958812072373E-10  -2.98058342088470E-29   0.00000000000000E+00   0.00000000000000E+00
      0.00000000000000E+00   0.00000000000000E+00  -4.37569981693866E-12  -1.64583112277447E-10  -1.68958812094385E-10
     -2.90316566969289E-31
      3.30000000000000E-01
      6.60000000000000E-01   6.60000000000000E-01   0.00000000000000E+00   0.00000000000000E+00   1.56770714658718E-10
      1.86866534101768E-11   1.75457368068895E-10  -2.01286153098707E-29   0.00000000000000E+00   0.00000000000000E+00
      0.00000000000000E+00   0.00000000000000E+00  -4.43676769393960E-12  -1.71020600084376E-10  -1.75457367778316E-10
     -5.00796078022024E-30
      3.40000000000000E-01
      6.80000000000000E-01   6.80000000000000E-01   0.00000000000000E+00   0.00000000000000E+00   1.62601361054716E-10
      1.93329199080733E-11   1.81934280962790E-10   1.86770324750243E-29   0.00000000000000E+00   0.00000000000000E+00
      0.00000000000000E+00   0.00000000000000E+00  -4.49528613990973E-12  -1.77438994468421E-10  -1.81934280608331E-10
     -3.29025442565195E-30
      3.50000000000000E-01
      7.00000000000000E-01   7.00000000000000E-01   0.00000000000000E+00   0.00000000000000E+00   1.68415676482775E-10
      1.99743530060548E-11   1.88390029488829E-10  -2.98058342088470E-29   0.00000000000000E+00   0.00000000000000E+00
      0.00000000000000E+00   0.00000000000000E+00  -4.55145066187088E-12  -1.83838579136698E-10  -1.88390029798569E-10
     -6.77405322928342E-31
      3.60000000000000E-01
      7.20000000000000E-01   7.20000000000000E-01   0.00000000000000E+00   0.00000000000000E+00   1.74214013446137E-10
      2.06110585410927E-11   1.94825071987230E-10  -2.74833016730927E-29   0.00000000000000E+00   0.00000000000000E+00
      0.00000000000000E+00   0.00000000000000E+00  -4.60543748458447E-12  -1.90219634345108E-10  -1.94825071829692E-10
      3.48379880363147E-30
      3.70000000000000E-01
      7.40000000000000E-01   7.40000000000000E-01   0.00000000000000E+00   0.00000000000000E+00   1.79996708128207E-10
      2.12431345151457E-11   2.01239842643353E-10  -4.20959022105470E-29   0.00000000000000E+00   0.00000000000000E+00
      0.00000000000000E+00   0.00000000000000E+00  -4.65740589358474E-12  -1.96582436936323E-10  -2.01239842829908E-10
      6.24180618983972E-30
      3.80000000000000E-01
      7.60000000000000E-01   7.60000000000000E-01   0.00000000000000E+00   0.00000000000000E+00   1.85764082145602E-10
      2.18706779863081E-11   2.07634760131910E-10   2.90316566969289E-30   0.00000000000000E+00   0.00000000000000E+00
      0.00000000000000E+00   0.00000000000000E+00  -4.70750024070496E-12  -2.02927260411296E-10  -2.07634760652001E-10
      5.41924258342674E-30
      3.90000000000000E-01
      7.80000000000000E-01   7.80000000000000E-01   0.00000000000000E+00   0.00000000000000E+00   1.91516444102434E-10
      2.24937825482281E-11   2.14010226650663E-10  -5.51601477241650E-30   0.00000000000000E+00   0.00000000000000E+00
      0.00000000000000E+00   0.00000000000000E+00  -4.75585166834967E-12  -2.09254375016117E-10  -2.14010226684466E-10
     -4.20959022105470E-30
      4.00000000000000E-01
      8.00000000000000E-01   8.00000000000000E-01   0.00000000000000E+00   0.00000000000000E+00   1.97254090912343E-10
      2.31125362992871E-11   2.20366627211630E-10  -2.14834259557274E-29   0.00000000000000E+00   0.00000000000000E+00
      0.00000000000000E+00   0.00000000000000E+00  -4.80257959815504E-12  -2.15564047840522E-10  -2.20366627438677E-10
     -2.24995339401199E-30
      4.10000000000000E-01
      8.20000000000000E-01   8.20000000000000E-01   0.00000000000000E+00   0.00000000000000E+00   2.02977308989668E-10
      2.37270272428879E-11   2.26704336232556E-10  -1.16126626787716E-30   0.00000000000000E+00   0.00000000000000E+00
      0.00000000000000E+00   0.00000000000000E+00  -4.84779302120620E-12  -2.21856542919293E-10  -2.26704335940499E-10
     -1.66932026007341E-30
      4.20000000000000E-01
      8.40000000000000E-01   8.40000000000000E-01   0.00000000000000E+00   0.00000000000000E+00   2.08686375275830E-10
      2.43373377562328E-11   2.33023713032063E-10  -1.10320295448330E-29   0.00000000000000E+00   0.00000000000000E+00
      0.00000000000000E+00   0.00000000000000E+00  -4.89159162035953E-12  -2.28132121335847E-10  -2.33023712956206E-10
     -2.27414644125943E-30
      4.30000000000000E-01
      8.60000000000000E-01   8.60000000000000E-01   0.00000000000000E+00   0.00000000000000E+00   2.14381558142186E-10
      2.49435498374396E-11   2.39325107979626E-10  -1.83867159080550E-30   0.00000000000000E+00   0.00000000000000E+00
      0.00000000000000E+00   0.00000000000000E+00  -4.93406674987632E-12  -2.34391041327214E-10  -2.39325108077090E-10
      8.70949700907868E-31
      4.40000000000000E-01
      8.80000000000000E-01   8.80000000000000E-01   0.00000000000000E+00   0.00000000000000E+00   2.20063118199600E-10
      2.55457424441555E-11   2.45608860643756E-10  -9.58044670998655E-30   0.00000000000000E+00   0.00000000000000E+00
      0.00000000000000E+00   0.00000000000000E+00  -4.97530229325305E-12  -2.40633558385447E-10  -2.45608860678701E-10
      8.70949700907868E-31
      4.50000000000000E-01
      9.00000000000000E-01   9.00000000000000E-01   0.00000000000000E+00   0.00000000000000E+00   2.25731309001113E-10
      2.61439918873254E-11   2.51875300888438E-10  -3.92895087298438E-29   0.00000000000000E+00   0.00000000000000E+00
      0.00000000000000E+00   0.00000000000000E+00  -5.01537541671516E-12  -2.46859925358507E-10  -2.51875300775222E-10
     -6.53212275680901E-31
      4.60000000000000E-01
      9.20000000000000E-01   9.20000000000000E-01   0.00000000000000E+00   0.00000000000000E+00   2.31386377685672E-10
      2.67383723389485E-11   2.58124750024621E-10   1.90641212309833E-29   0.00000000000000E+00   0.00000000000000E+00
      0.00000000000000E+00   0.00000000000000E+00  -5.05435723295793E-12  -2.53070392545965E-10  -2.58124749778923E-10
     -2.27414644125943E-30
      4.70000000000000E-01
      9.40000000000001E-01   9.40000000000001E-01   0.00000000000000E+00   0.00000000000000E+00   2.37028565517955E-10
      2.73289556826404E-11   2.64357521200596E-10  -1.17094348677613E-29   0.00000000000000E+00   0.00000000000000E+00
      0.00000000000000E+00   0.00000000000000E+00  -5.09231338745695E-12  -2.59265207793189E-10  -2.64357521180646E-10
      4.52409983527143E-30
      4.80000000000000E-01
      9.60000000000001E-01   9.60000000000001E-01   0.00000000000000E+00   0.00000000000000E+00   2.42658108392660E-10
      2.79158126325886E-11   2.70573921025249E-10  -1.28707011356385E-29   0.00000000000000E+00   0.00000000000000E+00
      0.00000000000000E+00   0.00000000000000E+00  -5.12930457770836E-12  -2.65444616579127E-10  -2.70573921156835E-10
     -5.73375219764347E-30
      4.90000000000000E-01
      9.80000000000001E-01   9.80000000000001E-01   0.00000000000000E+00   0.00000000000000E+00   2.48275237308739E-10
      2.84990117431890E-11   2.76774249051928E-10   4.77086891719532E-29   0.00000000000000E+00   0.00000000000000E+00
      0.00000000000000E+00   0.00000000000000E+00  -5.16538701421661E-12  -2.71608862098005E-10  -2.76774249112222E-10
      2.29833948850687E-30
      5.00000000000000E-01
      1.00000000000000E+00   1.00000000000000E+00   0.00000000000000E+00   0.00000000000000E+00   2.53880178713330E-10
      2.90786192901757E-11   2.82958798003505E-10   1.07417129778637E-29   0.00000000000000E+00   0.00000000000000E+00
      0.00000000000000E+00   0.00000000000000E+00  -5.20061283075970E-12  -2.77758185339410E-10  -2.82958798170170E-10
     -1.81447854355806E-30
      5.10000000000000E-01
      1.02000000000000E+00   1.02000000000000E+00   0.00000000000000E+00   0.00000000000000E+00   2.59473154904357E-10
      2.96547009497628E-11   2.89127855854120E-10  -5.12892601645745E-30   0.00000000000000E+00   0.00000000000000E+00
      0.00000000000000E+00   0.00000000000000E+00  -5.23503045029239E-12  -2.83892825158143E-10  -2.89127855608435E-10
      8.20144301688243E-30
      5.20000000000000E-01
      1.04000000000000E+00   1.04000000000000E+00   0.00000000000000E+00   0.00000000000000E+00   2.65054384321540E-10
      3.02273189065878E-11   2.95281703228128E-10  -2.80639348070313E-30   0.00000000000000E+00   0.00000000000000E+00
      0.00000000000000E+00   0.00000000000000E+00  -5.26868491202511E-12  -2.90013018341143E-10  -2.95281703253168E-10
      2.54026996098128E-30
      5.30000000000000E-01
      1.06000000000000E+00   1.06000000000000E+00   0.00000000000000E+00   0.00000000000000E+00   2.70624081831501E-10
      3.07965362866341E-11   3.01420618118135E-10   1.67415886952290E-29   0.00000000000000E+00   0.00000000000000E+00
      0.00000000000000E+00   0.00000000000000E+00  -5.30161816437677E-12  -2.96118999666741E-10  -3.01420617831118E-10
     -2.63704214997105E-30
      5.40000000000000E-01
      1.08000000000000E+00   1.08000000000000E+00   0.00000000000000E+00   0.00000000000000E+00   2.76182458973978E-10
      3.13624124118721E-11   3.07544871385850E-10   4.19023578325674E-29   0.00000000000000E+00   0.00000000000000E+00
      0.00000000000000E+00   0.00000000000000E+00  -5.33386932788575E-12  -3.02211001957788E-10  -3.07544871285673E-10
     -5.80633133938579E-31
      5.50000000000000E-01
      1.10000000000000E+00   1.10000000000000E+00   0.00000000000000E+00   0.00000000000000E+00   2.81729724202628E-10
      3.19250069482363E-11   3.13654731150864E-10  -2.46769081923896E-29   0.00000000000000E+00   0.00000000000000E+00
      0.00000000000000E+00   0.00000000000000E+00  -5.36547493159789E-12  -3.08289256127350E-10  -3.13654731058948E-10
      1.88705768530038E-30
      5.60000000000000E-01
      1.12000000000000E+00   1.12000000000000E+00   0.00000000000000E+00   0.00000000000000E+00   2.87266083058905E-10
      3.24843773871305E-11   3.19750460446035E-10   2.80639348070313E-30   0.00000000000000E+00   0.00000000000000E+00
      0.00000000000000E+00   0.00000000000000E+00  -5.39646912600251E-12  -3.14353991219498E-10  -3.19750460345501E-10
      4.30636241004446E-30
      5.70000000000000E-01
      1.14000000000000E+00   1.14000000000000E+00   0.00000000000000E+00   0.00000000000000E+00   2.92791738362939E-10
      3.30405799173132E-11   3.25832318280253E-10   4.54829288251887E-30   0.00000000000000E+00   0.00000000000000E+00
      0.00000000000000E+00   0.00000000000000E+00  -5.42688387515852E-12  -3.20405434441741E-10  -3.25832318316900E-10
      4.11281803206493E-30
      5.80000000000000E-01
      1.16000000000000E+00   1.16000000000000E+00   0.00000000000000E+00   0.00000000000000E+00   2.98306890344906E-10
      3.35936702564609E-11   3.31900560601367E-10   4.15152690766084E-29   0.00000000000000E+00   0.00000000000000E+00
      0.00000000000000E+00   0.00000000000000E+00  -5.45674913034949E-12  -3.26443811192868E-10  -3.31900560323217E-10
     -4.83860944948816E-32
      5.90000000000000E-01
      1.18000000000000E+00   1.18000000000000E+00   0.00000000000000E+00   0.00000000000000E+00   3.03811736809812E-10
      3.41437012545862E-11   3.37955438064398E-10  -9.38690233200702E-30   0.00000000000000E+00   0.00000000000000E+00
      0.00000000000000E+00   0.00000000000000E+00  -5.48609298727258E-12  -3.32469345081704E-10  -3.37955438068977E-10
     -1.79028549631062E-30
      6.00000000000000E-01
      1.20000000000000E+00   1.20000000000000E+00   0.00000000000000E+00   0.00000000000000E+00   3.09306473218276E-10
      3.46907265936890E-11   3.43997199811965E-10   3.48379880363147E-29   0.00000000000000E+00   0.00000000000000E+00
      0.00000000000000E+00   0.00000000000000E+00  -5.51494182856399E-12  -3.38482257941845E-10  -3.43997199770409E-10
      8.56433872559404E-30
      6.10000000000000E-01
      1.22000000000000E+00   1.22000000000000E+00   0.00000000000000E+00   0.00000000000000E+00   3.14791292811571E-10
      3.52347974440157E-11   3.50026090255587E-10  -2.64188075942053E-29   0.00000000000000E+00   0.00000000000000E+00
      0.00000000000000E+00   0.00000000000000E+00  -5.54332045320886E-12  -3.44482769839811E-10  -3.50026090293020E-10
      5.37085648893185E-30
      6.20000000000000E-01
      1.24000000000000E+00   1.24000000000000E+00   0.00000000000000E+00   0.00000000000000E+00   3.20266386678589E-10
      3.57759646816501E-11   3.56042351360239E-10  -1.12642827984084E-28   0.00000000000000E+00   0.00000000000000E+00
      0.00000000000000E+00   0.00000000000000E+00  -5.57125219420654E-12  -3.50471099075953E-10  -3.56042351270160E-10
     -6.14503400084996E-30
      6.30000000000000E-01
      1.26000000000000E+00   1.26000000000000E+00   0.00000000000000E+00   0.00000000000000E+00   3.25731943840831E-10
      3.63142774759381E-11   3.62046221316769E-10  -3.99669140527722E-29   0.00000000000000E+00   0.00000000000000E+00
      0.00000000000000E+00   0.00000000000000E+00  -5.59875902572187E-12  -3.56447462181876E-10  -3.62046221207598E-10
      1.53383919548775E-29
      6.40000000000000E-01
      1.28000000000000E+00   1.28000000000000E+00   0.00000000000000E+00   0.00000000000000E+00   3.31188151297495E-10
      3.68497843629666E-11   3.68037935660461E-10  -2.46769081923896E-29   0.00000000000000E+00   0.00000000000000E+00
      0.00000000000000E+00   0.00000000000000E+00  -5.62586166077900E-12  -3.62412073911249E-10  -3.68037935572028E-10
      1.20965236237204E-30
      6.50000000000000E-01
      1.30000000000000E+00   1.30000000000000E+00   0.00000000000000E+00   0.00000000000000E+00   3.36635194077283E-10
      3.73825329659572E-11   3.74017727043241E-10   8.19660440743294E-29   0.00000000000000E+00   0.00000000000000E+00
      0.00000000000000E+00   0.00000000000000E+00  -5.65257964045651E-12  -3.68365147225860E-10  -3.74017726866317E-10
     -1.45158283484645E-30
      6.60000000000000E-01
      1.32000000000000E+00   1.32000000000000E+00   0.00000000000000E+00   0.00000000000000E+00   3.42073255274099E-10
      3.79125692416199E-11   3.79985824515719E-10   6.48373666231413E-30   0.00000000000000E+00   0.00000000000000E+00
      0.00000000000000E+00   0.00000000000000E+00  -5.67893141543230E-12  -3.74306893278282E-10  -3.79985824693714E-10
      3.04832395317754E-30
      6.70000000000000E-01
      1.34000000000000E+00   1.34000000000000E+00   0.00000000000000E+00   0.00000000000000E+00   3.47502516077292E-10
      3.84399398730113E-11   3.85942455950303E-10  -6.77405322928342E-31   0.00000000000000E+00   0.00000000000000E+00
      0.00000000000000E+00   0.00000000000000E+00  -5.70493442061500E-12  -3.80237521388289E-10  -3.85942455808904E-10
      1.64512721282597E-30
      6.80000000000000E-01
      1.36000000000000E+00   1.36000000000000E+00   0.00000000000000E+00   0.00000000000000E+00   3.52923155791922E-10
      3.89646883352507E-11   3.91887844127172E-10  -5.42891980232571E-29   0.00000000000000E+00   0.00000000000000E+00
      0.00000000000000E+00   0.00000000000000E+00  -5.73060514355079E-12  -3.86157239017839E-10  -3.91887844161390E-10
     -2.08060206327991E-30
      6.90000000000000E-01