DF-ISE text

Info {
  version   = 1.0
  type      = xyplot
  datasets  = [
    "time"
    "ntype OuterVoltage" "ntype InnerVoltage" "ntype QuasiFermiPotential" "ntype DisplacementCurrent" "ntype eCurrent"
    "ntype hCurrent" "ntype TotalCurrent" "ntype Charge" "ptype OuterVoltage" "ptype InnerVoltage"
    "ptype QuasiFermiPotential" "ptype DisplacementCurrent" "ptype eCurrent" "ptype hCurrent" "ptype TotalCurrent"
    "ptype Charge" ]
  functions = [
    Time
    OuterVoltage InnerVoltage QuasiFermiPotential DisplacementCurrent eCurrent
    hCurrent TotalCurrent Charge OuterVoltage InnerVoltage
    QuasiFermiPotential DisplacementCurrent eCurrent hCurrent TotalCurrent
    Charge ]
}

Data {
      0.00000000000000E+00
      0.00000000000000E+00   0.00000000000000E+00   0.00000000000000E+00   0.00000000000000E+00  -7.18841207982679E-24
      3.36763676813884E-17   3.36763604929764E-17   4.74183726049839E-30   0.00000000000000E+00   0.00000000000000E+00
      0.00000000000000E+00   0.00000000000000E+00   1.15238071614528E-28  -1.15238071614528E-28   0.00000000000000E+00
      0.00000000000000E+00
      0.00000000000000E+00
      0.00000000000000E+00   0.00000000000000E+00   0.00000000000000E+00   0.00000000000000E+00   6.18214233460661E-25
      3.33044507967744E-17   3.33044514149887E-17  -7.64500293019129E-30   0.00000000000000E+00   0.00000000000000E+00
      0.00000000000000E+00   0.00000000000000E+00   1.13486550712851E-28  -1.13486550712851E-28   0.00000000000000E+00
      0.00000000000000E+00
      0.00000000000000E+00
      0.00000000000000E+00   0.00000000000000E+00   0.00000000000000E+00   0.00000000000000E+00  -2.11203447614709E-25
      6.41543246498518E-19   6.41543035295071E-19  -3.26122276895502E-29   0.00000000000000E+00   0.00000000000000E+00
      0.00000000000000E+00   0.00000000000000E+00   8.42059007612020E-29  -8.42059007612019E-29   1.61017617887148E-43
      0.00000000000000E+00
      1.00000000000000E-02
      2.00000000000000E-02   2.00000000000000E-02   0.00000000000000E+00   0.00000000000000E+00   7.04775355806037E-17
     -6.99475716229413E-17   5.29963957662457E-19  -3.58057099262124E-30   0.00000000000000E+00   0.00000000000000E+00
      0.00000000000000E+00   0.00000000000000E+00   8.41624571350002E-29  -8.41624571350000E-29   1.46379652624680E-43
      0.00000000000000E+00
      2.00000000000000E-02
      4.00000000000000E-02   4.00000000000000E-02   0.00000000000000E+00   0.00000000000000E+00   8.37994021774733E-22
     -2.23983394927738E-19  -2.23145400905963E-19   4.54829288251887E-30   0.00000000000000E+00   0.00000000000000E+00
      0.00000000000000E+00   0.00000000000000E+00   8.41688964023649E-29  -8.41688964023648E-29   1.61017617887148E-43
      0.00000000000000E+00
      3.00000000000000E-02
      6.00000000000000E-02   6.00000000000000E-02   0.00000000000000E+00   0.00000000000000E+00   3.59749290796056E-22
     -4.46650553934267E-19  -4.46290804643471E-19  -1.63544999392700E-29   0.00000000000000E+00   0.00000000000000E+00
      0.00000000000000E+00   0.00000000000000E+00   8.39829451466342E-29  -8.39829451465436E-29   9.05504531136269E-41
      0.00000000000000E+00
      4.00000000000000E-02
      8.00000000000000E-02   8.00000000000000E-02   0.00000000000000E+00   0.00000000000000E+00   3.67240845503335E-24
      2.69630356908554E-19   2.69634029317009E-19  -3.19348223666218E-29   0.00000000000000E+00   0.00000000000000E+00
      0.00000000000000E+00   0.00000000000000E+00   8.41710285391463E-29  -8.41710285391461E-29   1.31741687362212E-43
      0.00000000000000E+00
      5.00000000000000E-02
      1.00000000000000E-01   1.00000000000000E-01   0.00000000000000E+00   0.00000000000000E+00  -6.09947064038666E-26
     -5.57862889958202E-20  -5.57863499905266E-20  -7.06436979625271E-30   0.00000000000000E+00   0.00000000000000E+00
      0.00000000000000E+00   0.00000000000000E+00   8.41866258161284E-29  -8.41866258161283E-29   1.61017617887148E-43
      0.00000000000000E+00
      6.00000000000000E-02
      1.20000000000000E-01   1.20000000000000E-01   0.00000000000000E+00   0.00000000000000E+00   4.40778091825294E-24
      3.25415972634986E-19   3.25420380415904E-19  -2.71929851061234E-29   0.00000000000000E+00   0.00000000000000E+00
      0.00000000000000E+00   0.00000000000000E+00   8.41721160360473E-29  -8.41721160360472E-29   1.46379652624680E-43
      0.00000000000000E+00
      7.00000000000000E-02
      1.40000000000000E-01   1.40000000000000E-01   0.00000000000000E+00   0.00000000000000E+00   4.23516725257711E-24
     -4.55592765486006E-19  -4.55588530318753E-19  -4.23862187775163E-29   0.00000000000000E+00   0.00000000000000E+00
      0.00000000000000E+00   0.00000000000000E+00   8.41688964023649E-29  -8.41688964023648E-29   1.61017617887148E-43
      0.00000000000000E+00
      8.00000000000000E-02
      1.60000000000000E-01   1.60000000000000E-01   0.00000000000000E+00   0.00000000000000E+00   5.25650069431217E-25
      3.90503931929674E-19   3.90504457579743E-19   3.96765974858029E-30   0.00000000000000E+00   0.00000000000000E+00
      0.00000000000000E+00   0.00000000000000E+00   8.39829451466342E-29  -8.39829451465436E-29   9.05504531136269E-41
      0.00000000000000E+00
      9.00000000000000E-02
      1.80000000000000E-01   1.80000000000000E-01   0.00000000000000E+00   0.00000000000000E+00   4.38360278868319E-24
     -1.39470259691814E-19  -1.39465876089025E-19  -3.64831152491407E-29   0.00000000000000E+00   0.00000000000000E+00
      0.00000000000000E+00   0.00000000000000E+00   8.41710285391463E-29  -8.41710285391461E-29   1.31741687362212E-43
      0.00000000000000E+00
      1.00000000000000E-01
      2.00000000000000E-01   2.00000000000000E-01   0.00000000000000E+00   0.00000000000000E+00   4.26068796982826E-24
      1.11568441016274E-19   1.11572701704244E-19  -2.09027928217888E-29   0.00000000000000E+00   0.00000000000000E+00
      0.00000000000000E+00   0.00000000000000E+00   8.41866258161284E-29  -8.41866258161283E-29   1.61017617887148E-43
      0.00000000000000E+00
      1.10000000000000E-01
      2.20000000000000E-01   2.20000000000000E-01   0.00000000000000E+00   0.00000000000000E+00   3.27329394881460E-24
      1.76653504396475E-19   1.76656777690424E-19  -2.17737425226967E-29   0.00000000000000E+00   0.00000000000000E+00
      0.00000000000000E+00   0.00000000000000E+00   8.41721160360473E-29  -8.41721160360472E-29   1.46379652624680E-43
      0.00000000000000E+00
      1.20000000000000E-01
      2.40000000000000E-01   2.40000000000000E-01   0.00000000000000E+00   0.00000000000000E+00   3.58538871368117E-24
      2.78895907712036E-20   2.78931761599173E-20  -1.55803224273519E-29   0.00000000000000E+00   0.00000000000000E+00
      0.00000000000000E+00   0.00000000000000E+00   8.41688964023649E-29  -8.41688964023648E-29   1.61017617887148E-43
      0.00000000000000E+00
      1.30000000000000E-01
      2.60000000000000E-01   2.60000000000000E-01   0.00000000000000E+00   0.00000000000000E+00   3.22331527478798E-24
     -5.57895733577615E-20  -5.57863500424867E-20   2.99993785868266E-30   0.00000000000000E+00   0.00000000000000E+00
      0.00000000000000E+00   0.00000000000000E+00   8.41624571350002E-29  -8.41624571350000E-29   1.46379652624680E-43
      0.00000000000000E+00
      1.40000000000000E-01
      2.80000000000000E-01   2.80000000000000E-01   0.00000000000000E+00   0.00000000000000E+00   3.22882365703475E-24
     -1.11575930406670E-19  -1.11572701583013E-19  -1.24836123796794E-29   0.00000000000000E+00   0.00000000000000E+00
      0.00000000000000E+00   0.00000000000000E+00   8.39829451466342E-29  -8.39829451465436E-29   9.05504531136269E-41
      0.00000000000000E+00
      1.50000000000000E-01
      3.00000000000000E-01   3.00000000000000E-01   0.00000000000000E+00   0.00000000000000E+00   3.38065434827503E-24
      3.06821548298431E-19   3.06824928952780E-19  -3.10638726657140E-29   0.00000000000000E+00   0.00000000000000E+00
      0.00000000000000E+00   0.00000000000000E+00   8.41710285391463E-29  -8.41710285391461E-29   1.31741687362212E-43
      0.00000000000000E+00
      1.60000000000000E-01
      3.20000000000000E-01   3.20000000000000E-01   0.00000000000000E+00   0.00000000000000E+00   3.53155757304330E-24
      9.29737209782137E-20   9.29772525357868E-20  -4.03540028087312E-29   0.00000000000000E+00   0.00000000000000E+00
      0.00000000000000E+00   0.00000000000000E+00   8.41866258161284E-29  -8.41866258161283E-29   1.61017617887148E-43
      0.00000000000000E+00
      1.70000000000000E-01
      3.40000000000000E-01   3.40000000000000E-01   0.00000000000000E+00   0.00000000000000E+00   3.29303849672077E-24
     -4.27698647552352E-19  -4.27695354513855E-19  -2.48704525703691E-29   0.00000000000000E+00   0.00000000000000E+00
      0.00000000000000E+00   0.00000000000000E+00   8.41721160360473E-29  -8.41721160360472E-29   1.46379652624680E-43
      0.00000000000000E+00
      1.80000000000000E-01
      3.60000000000000E-01   3.60000000000000E-01   0.00000000000000E+00   0.00000000000000E+00   3.14070230455471E-24
      1.85923096784298E-20   1.85954503807344E-20  -2.17737425226967E-29   0.00000000000000E+00   0.00000000000000E+00
      0.00000000000000E+00   0.00000000000000E+00   8.41688964023649E-29  -8.41688964023648E-29   1.61017617887148E-43
      0.00000000000000E+00
      1.90000000000000E-01
      3.80000000000000E-01   3.80000000000000E-01   0.00000000000000E+00   0.00000000000000E+00   3.55482542034677E-24
     -3.81210284764249E-19  -3.81206729938829E-19  -1.55803224273519E-29   0.00000000000000E+00   0.00000000000000E+00
      0.00000000000000E+00   0.00000000000000E+00   8.41624571350002E-29  -8.41624571350000E-29   1.46379652624680E-43
      0.00000000000000E+00
      2.00000000000000E-01
      4.00000000000000E-01   4.00000000000000E-01   0.00000000000000E+00   0.00000000000000E+00   3.52764061311726E-24
     -1.58064854387468E-19  -1.58061326746855E-19  -9.67721889897631E-32   0.00000000000000E+00   0.00000000000000E+00
      0.00000000000000E+00   0.00000000000000E+00   8.41624571350002E-29  -8.41624571350000E-29   1.46379652624680E-43
      0.00000000000000E+00
      2.10000000000000E-01
      4.20000000000000E-01   4.20000000000000E-01   0.00000000000000E+00   0.00000000000000E+00  -3.79055605183999E-24
     -3.06821137478840E-19  -3.06824928034892E-19   5.41924258342674E-30   0.00000000000000E+00   0.00000000000000E+00
      0.00000000000000E+00   0.00000000000000E+00   8.41624571350002E-29  -8.41624571350000E-29   1.46379652624680E-43
      0.00000000000000E+00
      2.20000000000000E-01
      4.40000000000000E-01   4.40000000000000E-01   0.00000000000000E+00   0.00000000000000E+00  -3.68469534445934E-24
      3.68500706799791E-24   3.11723538570199E-28  -6.96759760726295E-30   0.00000000000000E+00   0.00000000000000E+00
      0.00000000000000E+00   0.00000000000000E+00   8.41624571350002E-29  -8.41624571350000E-29   1.46379652624680E-43
      0.00000000000000E+00
      2.30000000000000E-01
      4.60000000000000E-01   4.60000000000000E-01   0.00000000000000E+00   0.00000000000000E+00   3.09647507299188E-23
      1.02244012655048E-19   1.02274977405778E-19  -1.62577277502802E-29   0.00000000000000E+00   0.00000000000000E+00
      0.00000000000000E+00   0.00000000000000E+00   8.41624571350002E-29  -8.41624571350000E-29   1.46379652624680E-43
      0.00000000000000E+00
      2.40000000000000E-01
      4.80000000000000E-01   4.80000000000000E-01   0.00000000000000E+00   0.00000000000000E+00  -3.36802444523833E-24
     -2.51035210565440E-19  -2.51038578589886E-19  -1.31610177026078E-29   0.00000000000000E+00   0.00000000000000E+00
      0.00000000000000E+00   0.00000000000000E+00   8.41624571350002E-29  -8.41624571350000E-29   1.46379652624680E-43
      0.00000000000000E+00
      2.50000000000000E-01
      5.00000000000000E-01   5.00000000000000E-01   0.00000000000000E+00   0.00000000000000E+00   5.35605873011273E-24
     -3.71914360209733E-19  -3.71909004151003E-19   8.51595263109916E-30   0.00000000000000E+00   0.00000000000000E+00
      0.00000000000000E+00   0.00000000000000E+00   8.41624571350002E-29  -8.41624571350000E-29   1.46379652624680E-43
      0.00000000000000E+00
      2.60000000000000E-01
      5.20000000000000E-01   5.20000000000000E-01   0.00000000000000E+00   0.00000000000000E+00   5.56113840380646E-24
      3.71903444068991E-19   3.71909005207395E-19  -3.87088755959053E-30   0.00000000000000E+00   0.00000000000000E+00
      0.00000000000000E+00   0.00000000000000E+00   8.39829451466342E-29  -8.39829451465436E-29   9.05504531136269E-41
      0.00000000000000E+00
      2.70000000000000E-01
      5.40000000000000E-01   5.40000000000000E-01   0.00000000000000E+00   0.00000000000000E+00   3.87521256014224E-23
      2.88190694892394E-19   2.88229447017996E-19  -6.96759760726295E-30   0.00000000000000E+00   0.00000000000000E+00
      0.00000000000000E+00   0.00000000000000E+00   8.41710285391463E-29  -8.41710285391461E-29   1.31741687362212E-43
      0.00000000000000E+00
      2.80000000000000E-01
      5.60000000000000E-01   5.60000000000000E-01   0.00000000000000E+00   0.00000000000000E+00   5.25404758986108E-24
      2.60331050278187E-19   2.60336304325777E-19  -2.24511478456250E-29   0.00000000000000E+00   0.00000000000000E+00
      0.00000000000000E+00   0.00000000000000E+00   8.41866258161284E-29  -8.41866258161283E-29   1.61017617887148E-43
      0.00000000000000E+00
      2.90000000000000E-01
      5.80000000000000E-01   5.80000000000000E-01   0.00000000000000E+00   0.00000000000000E+00   5.42999445332666E-24
     -1.20875856023142E-19  -1.20870426028689E-19  -6.96759760726295E-30   0.00000000000000E+00   0.00000000000000E+00
      0.00000000000000E+00   0.00000000000000E+00   8.41721160360473E-29  -8.41721160360472E-29   1.46379652624680E-43
      0.00000000000000E+00
      3.00000000000000E-01
      6.00000000000000E-01   6.00000000000000E-01   0.00000000000000E+00   0.00000000000000E+00   5.73892289611804E-24
     -5.57920894849702E-20  -5.57863505620741E-20  -2.55478578932975E-29   0.00000000000000E+00   0.00000000000000E+00
      0.00000000000000E+00   0.00000000000000E+00   8.41688964023649E-29  -8.41688964023648E-29   1.61017617887148E-43
      0.00000000000000E+00
      3.10000000000000E-01
      6.20000000000000E-01   6.20000000000000E-01   0.00000000000000E+00   0.00000000000000E+00   5.68528866301124E-24
     -2.78937438471135E-19  -2.78931753182472E-19  -2.24511478456250E-29   0.00000000000000E+00   0.00000000000000E+00
      0.00000000000000E+00   0.00000000000000E+00   8.41624571350002E-29  -8.41624571350000E-29   1.46379652624680E-43
      0.00000000000000E+00
      3.20000000000000E-01
      6.40000000000000E-01   6.40000000000000E-01   0.00000000000000E+00   0.00000000000000E+00   5.45176660177474E-24
     -7.43872522590795E-20  -7.43818004924777E-20  -1.00643076549354E-29   0.00000000000000E+00   0.00000000000000E+00
      0.00000000000000E+00   0.00000000000000E+00   8.41624571350002E-29  -8.41624571350000E-29   1.46379652624680E-43
      0.00000000000000E+00
      3.30000000000000E-01
      6.60000000000000E-01   6.60000000000000E-01   0.00000000000000E+00   0.00000000000000E+00   5.42898072834203E-24
      4.55583102922667E-19   4.55588531903395E-19  -1.31610177026078E-29   0.00000000000000E+00   0.00000000000000E+00
      0.00000000000000E+00   0.00000000000000E+00   8.41624571350002E-29  -8.41624571350000E-29   1.46379652624680E-43
      0.00000000000000E+00
      3.40000000000000E-01
      6.80000000000000E-01   6.80000000000000E-01   0.00000000000000E+00   0.00000000000000E+00   5.78221541240891E-24
      2.32437346920278E-19   2.32443129135690E-19  -2.86445679409699E-29   0.00000000000000E+00   0.00000000000000E+00
      0.00000000000000E+00   0.00000000000000E+00   8.41624571350002E-29  -8.41624571350000E-29   1.46379652624680E-43
      0.00000000000000E+00
      3.50000000000000E-01
      7.00000000000000E-01   7.00000000000000E-01   0.00000000000000E+00   0.00000000000000E+00   5.74683559935229E-24
     -2.60342049360306E-19  -2.60336302524706E-19  -1.62577277502802E-29   0.00000000000000E+00   0.00000000000000E+00
      0.00000000000000E+00   0.00000000000000E+00   8.41624571350002E-29  -8.41624571350000E-29   1.46379652624680E-43
      0.00000000000000E+00
      3.60000000000000E-01
      7.20000000000000E-01   7.20000000000000E-01   0.00000000000000E+00   0.00000000000000E+00   5.41238410624265E-24
      1.95246815669719E-19   1.95252228053825E-19  -2.24511478456250E-29   0.00000000000000E+00   0.00000000000000E+00
      0.00000000000000E+00   0.00000000000000E+00   8.41624571350002E-29  -8.41624571350000E-29   1.46379652624680E-43
      0.00000000000000E+00
      3.70000000000000E-01
      7.40000000000000E-01   7.40000000000000E-01   0.00000000000000E+00   0.00000000000000E+00   5.44611227753795E-24
      3.90499010644848E-19   3.90504456757126E-19  -2.55478578932975E-29   0.00000000000000E+00   0.00000000000000E+00
      0.00000000000000E+00   0.00000000000000E+00   8.41624571350002E-29  -8.41624571350000E-29   1.46379652624680E-43
      0.00000000000000E+00
      3.80000000000000E-01
      7.60000000000000E-01   7.60000000000000E-01   0.00000000000000E+00   0.00000000000000E+00   3.90349582384229E-23
     -3.72299348364529E-20  -3.71908998782145E-20  -1.62577277502802E-29   0.00000000000000E+00   0.00000000000000E+00
      0.00000000000000E+00   0.00000000000000E+00   8.41624571350002E-29  -8.41624571350000E-29   1.46379652624680E-43
      0.00000000000000E+00
      3.90000000000000E-01
      7.80000000000000E-01   7.80000000000000E-01   0.00000000000000E+00   0.00000000000000E+00   5.94374746164525E-24
     -1.30174096005571E-19  -1.30168152258109E-19  -2.24511478456250E-29   0.00000000000000E+00   0.00000000000000E+00
      0.00000000000000E+00   0.00000000000000E+00   8.41624571350002E-29  -8.41624571350000E-29   1.46379652624680E-43
      0.00000000000000E+00
      4.00000000000000E-01
      8.00000000000000E-01   8.00000000000000E-01   0.00000000000000E+00   0.00000000000000E+00   5.81242574415289E-24
     -6.13655669214255E-19  -6.13649856788510E-19  -2.86445679409699E-29   0.00000000000000E+00   0.00000000000000E+00
      0.00000000000000E+00   0.00000000000000E+00   8.41624571350002E-29  -8.41624571350000E-29   1.46379652624680E-43
      0.00000000000000E+00
      4.10000000000000E-01
      8.20000000000000E-01   8.20000000000000E-01   0.00000000000000E+00   0.00000000000000E+00   5.73837721983183E-24
     -2.32448866387220E-19  -2.32443128010000E-19  -3.63863430601509E-29   0.00000000000000E+00   0.00000000000000E+00
      0.00000000000000E+00   0.00000000000000E+00   8.41624571350002E-29  -8.41624571350000E-29   1.46379652624680E-43
      0.00000000000000E+00
      4.20000000000000E-01
      8.40000000000000E-01   8.40000000000000E-01   0.00000000000000E+00   0.00000000000000E+00  -2.92666885739163E-24
     -4.64856983304196E-20  -4.64886249992770E-20  -2.33220975465329E-29   0.00000000000000E+00   0.00000000000000E+00
      0.00000000000000E+00   0.00000000000000E+00   8.41624571350002E-29  -8.41624571350000E-29   1.46379652624680E-43
      0.00000000000000E+00
      4.30000000000000E-01
      8.60000000000000E-01   8.60000000000000E-01   0.00000000000000E+00   0.00000000000000E+00  -3.39109057441891E-24
     -1.85920579912731E-20  -1.85954490818475E-20  -1.40319674035157E-29   0.00000000000000E+00   0.00000000000000E+00
      0.00000000000000E+00   0.00000000000000E+00   8.41624571350002E-29  -8.41624571350000E-29   1.46379652624680E-43
      0.00000000000000E+00
      4.40000000000000E-01
      8.80000000000000E-01   8.80000000000000E-01   0.00000000000000E+00   0.00000000000000E+00   1.35659140160321E-23
     -2.51052143612020E-19  -2.51038577698004E-19  -2.95155176418778E-29   0.00000000000000E+00   0.00000000000000E+00
      0.00000000000000E+00   0.00000000000000E+00   8.41624571350002E-29  -8.41624571350000E-29   1.46379652624680E-43
      0.00000000000000E+00
      4.50000000000000E-01
      9.00000000000000E-01   9.00000000000000E-01   0.00000000000000E+00   0.00000000000000E+00  -2.19182972563859E-24
     -3.06822736482248E-19  -3.06824928311974E-19  -1.71286774511881E-29   0.00000000000000E+00   0.00000000000000E+00
      0.00000000000000E+00   0.00000000000000E+00   8.41624571350002E-29  -8.41624571350000E-29   1.46379652624680E-43
      0.00000000000000E+00
      4.60000000000000E-01
      9.20000000000000E-01   9.20000000000000E-01   0.00000000000000E+00   0.00000000000000E+00   1.41078327638537E-23
     -1.39480016021366E-19  -1.39465908188602E-19  -2.95155176418778E-29   0.00000000000000E+00   0.00000000000000E+00
      0.00000000000000E+00   0.00000000000000E+00   8.41624571350002E-29  -8.41624571350000E-29   1.46379652624680E-43
      0.00000000000000E+00
      4.70000000000000E-01
      9.40000000000001E-01   9.40000000000001E-01   0.00000000000000E+00   0.00000000000000E+00  -3.34768716825621E-24
      9.30107469596867E-21   9.29772700880042E-21  -3.26122276895502E-29   0.00000000000000E+00   0.00000000000000E+00
      0.00000000000000E+00   0.00000000000000E+00   8.41624571350002E-29  -8.41624571350000E-29   1.46379652624680E-43
      0.00000000000000E+00
      4.80000000000000E-01
      9.60000000000001E-01   9.60000000000001E-01   0.00000000000000E+00   0.00000000000000E+00   1.36445991823423E-23
     -2.23159121298972E-19  -2.23145476699790E-19  -2.95155176418778E-29   0.00000000000000E+00   0.00000000000000E+00
      0.00000000000000E+00   0.00000000000000E+00   8.41624571350002E-29  -8.41624571350000E-29   1.46379652624680E-43
      0.00000000000000E+00
      4.90000000000000E-01
      9.80000000000001E-01   9.80000000000001E-01   0.00000000000000E+00   0.00000000000000E+00  -2.93904275247234E-24
     -5.57835216986939E-20  -5.57864607414464E-20  -2.64188075942053E-29   0.00000000000000E+00   0.00000000000000E+00
      0.00000000000000E+00   0.00000000000000E+00   8.41624571350002E-29  -8.41624571350000E-29   1.46379652624680E-43
      0.00000000000000E+00
      5.00000000000000E-01
      1.00000000000000E+00   1.00000000000000E+00   0.00000000000000E+00   0.00000000000000E+00  -3.42007636136311E-24
      1.11576125962989E-19   1.11572705886627E-19  -2.33220975465329E-29   0.00000000000000E+00   0.00000000000000E+00
      0.00000000000000E+00   0.00000000000000E+00   8.38610115655159E-29  -8.38610115654391E-29   7.67322139058571E-41
      0.00000000000000E+00
      5.10000000000000E-01
      1.02000000000000E+00   1.02000000000000E+00   0.00000000000000E+00   0.00000000000000E+00   1.35770544013621E-23
     -1.85968126712091E-19  -1.85954549657690E-19  -2.95155176418778E-29   0.00000000000000E+00   0.00000000000000E+00
      0.00000000000000E+00   0.00000000000000E+00   8.37243914191273E-29  -8.37243914190412E-29   8.61005116738366E-41
      0.00000000000000E+00
      5.20000000000000E-01
      1.04000000000000E+00   1.04000000000000E+00   0.00000000000000E+00   0.00000000000000E+00  -2.22284002729699E-24
     -2.78929638313802E-19  -2.78931861153829E-19  -3.57089377372226E-29   0.00000000000000E+00   0.00000000000000E+00
      0.00000000000000E+00   0.00000000000000E+00   8.39981017997801E-29  -8.39981017997799E-29   1.61017617887148E-43
      0.00000000000000E+00
      5.30000000000000E-01
      1.06000000000000E+00   1.06000000000000E+00   0.00000000000000E+00   0.00000000000000E+00   1.41338157531972E-23
      2.69619816235113E-19   2.69633950050866E-19  -3.26122276895502E-29   0.00000000000000E+00   0.00000000000000E+00
      0.00000000000000E+00   0.00000000000000E+00   8.42139712739184E-29  -8.42139712739182E-29   1.61017617887148E-43
      0.00000000000000E+00
      5.40000000000000E-01
      1.08000000000000E+00   1.08000000000000E+00   0.00000000000000E+00   0.00000000000000E+00  -3.37301005515347E-24
     -1.67355810867079E-19  -1.67359183877134E-19  -3.57089377372226E-29   0.00000000000000E+00   0.00000000000000E+00
      0.00000000000000E+00   0.00000000000000E+00   8.41721160360473E-29  -8.41721160360472E-29   1.46379652624680E-43
      0.00000000000000E+00
      5.50000000000000E-01
      1.10000000000000E+00   1.10000000000000E+00   0.00000000000000E+00   0.00000000000000E+00   1.36540920209841E-23
      4.64749206753978E-20   4.64885747674188E-20  -3.57089377372226E-29   0.00000000000000E+00   0.00000000000000E+00
      0.00000000000000E+00   0.00000000000000E+00   8.41624571350002E-29  -8.41624571350000E-29   1.46379652624680E-43
      0.00000000000000E+00
      5.60000000000000E-01
      1.12000000000000E+00   1.12000000000000E+00   0.00000000000000E+00   0.00000000000000E+00  -2.92916423208050E-24
     -1.58058469592354E-19  -1.58061398756586E-19  -2.33220975465329E-29   0.00000000000000E+00   0.00000000000000E+00
      0.00000000000000E+00   0.00000000000000E+00   8.41624571350002E-29  -8.41624571350000E-29   1.46379652624680E-43
      0.00000000000000E+00
      5.70000000000000E-01
      1.14000000000000E+00   1.14000000000000E+00   0.00000000000000E+00   0.00000000000000E+00   1.36933536339015E-23
     -1.38493747472082E-23  -1.56021113306723E-25  -3.26122276895502E-29   0.00000000000000E+00   0.00000000000000E+00
      0.00000000000000E+00   0.00000000000000E+00   8.41624571350002E-29  -8.41624571350000E-29   1.46379652624680E-43
      0.00000000000000E+00
      5.80000000000000E-01
      1.16000000000000E+00   1.16000000000000E+00   0.00000000000000E+00   0.00000000000000E+00  -3.36991864765498E-24
     -3.71905635808312E-19  -3.71909005726959E-19  -3.26122276895502E-29   0.00000000000000E+00   0.00000000000000E+00
      0.00000000000000E+00   0.00000000000000E+00   8.41624571350002E-29  -8.41624571350000E-29   1.46379652624680E-43
      0.00000000000000E+00
      5.90000000000000E-01
      1.18000000000000E+00   1.18000000000000E+00   0.00000000000000E+00   0.00000000000000E+00   1.36869222074291E-23
     -4.83495331409803E-19  -4.83481644487596E-19  -4.19023578325674E-29   0.00000000000000E+00   0.00000000000000E+00
      0.00000000000000E+00   0.00000000000000E+00   8.41624571350002E-29  -8.41624571350000E-29   1.46379652624680E-43
      0.00000000000000E+00
      6.00000000000000E-01
      1.20000000000000E+00   1.20000000000000E+00   0.00000000000000E+00   0.00000000000000E+00  -2.18197109064408E-24
     -1.48761490815805E-19  -1.48763672786896E-19  -3.57089377372226E-29   0.00000000000000E+00   0.00000000000000E+00
      0.00000000000000E+00   0.00000000000000E+00   8.41624571350002E-29  -8.41624571350000E-29   1.46379652624680E-43
      0.00000000000000E+00
      6.10000000000000E-01
      1.22000000000000E+00   1.22000000000000E+00   0.00000000000000E+00   0.00000000000000E+00   1.41750433703721E-23
     -3.90518666965425E-19  -3.90504491922055E-19  -3.57089377372226E-29   0.00000000000000E+00   0.00000000000000E+00
      0.00000000000000E+00   0.00000000000000E+00   8.41624571350002E-29  -8.41624571350000E-29   1.46379652624680E-43
      0.00000000000000E+00
      6.20000000000000E-01
      1.24000000000000E+00   1.24000000000000E+00   0.00000000000000E+00   0.00000000000000E+00  -3.36605948537036E-24
      3.34721352541379E-19   3.34717986481894E-19  -2.95155176418778E-29   0.00000000000000E+00   0.00000000000000E+00
      0.00000000000000E+00   0.00000000000000E+00   8.41624571350002E-29  -8.41624571350000E-29   1.46379652624680E-43
      0.00000000000000E+00
      6.30000000000000E-01
      1.26000000000000E+00   1.26000000000000E+00   0.00000000000000E+00   0.00000000000000E+00   1.36938138306921E-23
     -1.86092269243759E-20  -1.85955331105452E-20  -2.33220975465329E-29   0.00000000000000E+00   0.00000000000000E+00
      0.00000000000000E+00   0.00000000000000E+00   8.41624571350002E-29  -8.41624571350000E-29   1.46379652624680E-43
      0.00000000000000E+00
      6.40000000000000E-01
      1.28000000000000E+00   1.28000000000000E+00   0.00000000000000E+00   0.00000000000000E+00  -2.89056438337818E-24
      7.43846951440253E-20   7.43818045796419E-20  -2.64188075942053E-29   0.00000000000000E+00   0.00000000000000E+00
      0.00000000000000E+00   0.00000000000000E+00   8.41624571350002E-29  -8.41624571350000E-29   1.46379652624680E-43
      0.00000000000000E+00
      6.50000000000000E-01
      1.30000000000000E+00   1.30000000000000E+00   0.00000000000000E+00   0.00000000000000E+00   1.37588265935733E-23
     -2.97540966728100E-19  -2.97527207901506E-19  -3.26122276895502E-29   0.00000000000000E+00   0.00000000000000E+00
      0.00000000000000E+00   0.00000000000000E+00   8.41624571350002E-29  -8.41624571350000E-29   1.46379652624680E-43
      0.00000000000000E+00
      6.60000000000000E-01
      1.32000000000000E+00   1.32000000000000E+00   0.00000000000000E+00   0.00000000000000E+00   1.37924777023526E-23
      9.28385516104328E-21   9.29764763874564E-21  -2.64188075942053E-29   0.00000000000000E+00   0.00000000000000E+00
      0.00000000000000E+00   0.00000000000000E+00   8.41624571350002E-29  -8.41624571350000E-29   1.46379652624680E-43
      0.00000000000000E+00
      6.70000000000000E-01
      1.34000000000000E+00   1.34000000000000E+00   0.00000000000000E+00   0.00000000000000E+00  -2.10112209967895E-24
      3.90506434070277E-19   3.90504332948177E-19  -4.49990678802399E-29   0.00000000000000E+00   0.00000000000000E+00
      0.00000000000000E+00   0.00000000000000E+00   8.41624571350002E-29  -8.41624571350000E-29   1.46379652624680E-43
      0.00000000000000E+00
      6.80000000000000E-01
      1.36000000000000E+00   1.36000000000000E+00   0.00000000000000E+00   0.00000000000000E+00   1.41524849600933E-23
     -3.72051879919226E-20  -3.71910355069625E-20  -2.02253874988605E-29   0.00000000000000E+00   0.00000000000000E+00
      0.00000000000000E+00   0.00000000000000E+00   8.41624571350002E-29  -8.41624571350000E-29   1.46379652624680E-43
      0.00000000000000E+00
      6.90000000000000E-01