DF-ISE text

Info {
  version   = 1.0
  type      = xyplot
  datasets  = [
    "time"
    "ntype OuterVoltage" "ntype InnerVoltage" "ntype QuasiFermiPotential" "ntype DisplacementCurrent" "ntype eCurrent"
    "ntype hCurrent" "ntype TotalCurrent" "ntype Charge" "ptype OuterVoltage" "ptype InnerVoltage"
    "ptype QuasiFermiPotential" "ptype DisplacementCurrent" "ptype eCurrent" "ptype hCurrent" "ptype TotalCurrent"
    "ptype Charge" ]
  functions = [
    Time
    OuterVoltage InnerVoltage QuasiFermiPotential DisplacementCurrent eCurrent
    hCurrent TotalCurrent Charge OuterVoltage InnerVoltage
    QuasiFermiPotential DisplacementCurrent eCurrent hCurrent TotalCurrent
    Charge ]
}

Data {
      0.00000000000000E+00
      0.00000000000000E+00   0.00000000000000E+00   0.00000000000000E+00   0.00000000000000E+00  -3.86886862471550E-24
      3.86886861827382E-24  -6.44167632038402E-33   7.45145855221176E-30   0.00000000000000E+00   0.00000000000000E+00
      0.00000000000000E+00   0.00000000000000E+00   4.23194733475567E-29  -3.40495035647666E-24  -3.40490803700331E-24
      8.22563606412987E-31
      0.00000000000000E+00
      0.00000000000000E+00   0.00000000000000E+00   0.00000000000000E+00   0.00000000000000E+00  -9.15071777292376E-25
      9.13807537457850E-25  -1.26423983452569E-27  -3.48379880363147E-30   0.00000000000000E+00   0.00000000000000E+00
      0.00000000000000E+00   0.00000000000000E+00  -7.55282731933850E-29  -3.39497589118433E-24  -3.39505141945753E-24
      6.77405322928342E-31
      0.00000000000000E+00
      0.00000000000000E+00   0.00000000000000E+00   0.00000000000000E+00   0.00000000000000E+00  -8.00055609070689E-25
      7.99761192986185E-25  -2.94416084504715E-28  -2.49672247593589E-29   0.00000000000000E+00   0.00000000000000E+00
      0.00000000000000E+00   0.00000000000000E+00   3.00160680707206E-29  -1.44438660253674E-26  -1.44138499572967E-26
     -6.16922704809740E-31
      2.50000000000000E-03
      3.75000000000000E-02   3.75000000000000E-02   0.00000000000000E+00   0.00000000000000E+00   3.64111087169923E-13
      4.82206109291354E-14   4.12331698099059E-13   1.00643076549354E-29   0.00000000000000E+00   0.00000000000000E+00
      0.00000000000000E+00   0.00000000000000E+00  -3.30188798821750E-14  -3.79312471083180E-13  -4.12331350965355E-13
     -8.40708391848567E-31
      7.00000000000000E-03
      1.05000000000000E-01   1.05000000000000E-01   0.00000000000000E+00   0.00000000000000E+00   3.14747153914915E-12
      4.15619093092007E-13   3.56309063224116E-12   0.00000000000000E+00   0.00000000000000E+00   0.00000000000000E+00
      0.00000000000000E+00   0.00000000000000E+00  -2.74174460159570E-13  -3.28891581586655E-12  -3.56309027602612E-12
     -1.22477301690169E-31
      1.57000000000000E-02
      2.35500000000000E-01   2.35500000000000E-01   0.00000000000000E+00   0.00000000000000E+00   2.90130490205060E-11
      3.78619629710444E-12   3.27992453176104E-11  -3.90959643518643E-29   0.00000000000000E+00   0.00000000000000E+00
      0.00000000000000E+00   0.00000000000000E+00  -1.84714651614774E-12  -3.09520987323724E-11  -3.27992452485202E-11
     -5.53415955785208E-31
      2.57000000000000E-02
      3.85500000000000E-01   3.85500000000000E-01   0.00000000000000E+00   0.00000000000000E+00   7.44906407034013E-11
      9.49375807446672E-12   8.39843987778680E-11  -2.59349466492565E-29   0.00000000000000E+00   0.00000000000000E+00
      0.00000000000000E+00   0.00000000000000E+00  -3.23791183152880E-12  -8.07464867914371E-11  -8.39843986229659E-11
     -2.75195912439639E-30
      3.57000000000000E-02
      5.35500000000000E-01   5.35500000000000E-01   0.00000000000000E+00   0.00000000000000E+00   1.19380654685032E-10
      1.49179581296185E-11   1.34298612814651E-10   3.11606448547037E-29   0.00000000000000E+00   0.00000000000000E+00
      0.00000000000000E+00   0.00000000000000E+00  -4.00753451247228E-12  -1.30291078253311E-10  -1.34298612765783E-10
      1.57254807108365E-31
      4.57000000000000E-02
      6.85500000000000E-01   6.85500000000000E-01   0.00000000000000E+00   0.00000000000000E+00   1.63104062546453E-10
      1.99903418017265E-11   1.83094404348179E-10   2.99993785868266E-29   0.00000000000000E+00   0.00000000000000E+00
      0.00000000000000E+00   0.00000000000000E+00  -4.51294803953538E-12  -1.78581456495049E-10  -1.83094404534585E-10
     -1.18545931512460E-30
      5.57000000000000E-02
      8.35500000000000E-01   8.35500000000000E-01   0.00000000000000E+00   0.00000000000000E+00   2.05840762448155E-10
      2.47783870234481E-11   2.30619149471603E-10  -2.45801360033998E-29   0.00000000000000E+00   0.00000000000000E+00
      0.00000000000000E+00   0.00000000000000E+00  -4.88371690099929E-12  -2.25735432364848E-10  -2.30619149265847E-10
      1.83867159080550E-30
      6.57000000000000E-02
      9.85500000000000E-01   9.85500000000000E-01   0.00000000000000E+00   0.00000000000000E+00   2.47721732179201E-10
      2.93242981659913E-11   2.77046030345192E-10  -7.25791417423224E-30   0.00000000000000E+00   0.00000000000000E+00
      0.00000000000000E+00   0.00000000000000E+00  -5.17686721125883E-12  -2.71869163065397E-10  -2.77046030276655E-10
      4.83860944948816E-32
      7.57000000000000E-02
      1.13550000000000E+00   1.13550000000000E+00   0.00000000000000E+00   0.00000000000000E+00   2.88849272192179E-10
      3.36617174199731E-11   3.22510989612152E-10  -6.67728104029366E-30   0.00000000000000E+00   0.00000000000000E+00
      0.00000000000000E+00   0.00000000000000E+00  -5.42163503906815E-12  -3.17089354306455E-10  -3.22510989345524E-10
      5.80633133938579E-31
      8.57000000000000E-02
      1.28550000000000E+00   1.28550000000000E+00   0.00000000000000E+00   0.00000000000000E+00   3.29311011762406E-10
      3.78186520288262E-11   3.67129663791232E-10  -5.12892601645745E-30   0.00000000000000E+00   0.00000000000000E+00
      0.00000000000000E+00   0.00000000000000E+00  -5.63461607449752E-12  -3.61495047705350E-10  -3.67129663779847E-10
     -8.70949700907868E-31
      9.57000000000000E-02
      1.43550000000000E+00   1.43550000000000E+00   0.00000000000000E+00   0.00000000000000E+00   3.69185687533919E-10
      4.18189678588599E-11   4.11004655392779E-10  -1.38384230255361E-29   0.00000000000000E+00   0.00000000000000E+00
      0.00000000000000E+00   0.00000000000000E+00  -5.82595853643275E-12  -4.05178696537293E-10  -4.11004655073726E-10
      5.61278696140626E-30
      1.05700000000000E-01
      1.58550000000000E+00   1.58550000000000E+00   0.00000000000000E+00   0.00000000000000E+00   4.08545365282747E-10
      4.56832188615957E-11   4.54228584144343E-10  -1.36448786475566E-29   0.00000000000000E+00   0.00000000000000E+00
      0.00000000000000E+00   0.00000000000000E+00  -6.00222374986889E-12  -4.48226360195106E-10  -4.54228583944975E-10
     -4.59667897701375E-30
      1.15700000000000E-01
      1.73550000000000E+00   1.73550000000000E+00   0.00000000000000E+00   0.00000000000000E+00   4.47455900264988E-10
      4.94291634381707E-11   4.96885063703159E-10   9.96753546594560E-30   0.00000000000000E+00   0.00000000000000E+00
      0.00000000000000E+00   0.00000000000000E+00  -6.16782948971140E-12  -4.90717233865796E-10  -4.96885063355507E-10
     -3.19348223666218E-30
      1.25700000000000E-01
      1.88550000000000E+00   1.88550000000000E+00   0.00000000000000E+00   0.00000000000000E+00   4.85976674328780E-10
      5.30721326725224E-11   5.39048807001302E-10  -1.32577898915975E-29   0.00000000000000E+00   0.00000000000000E+00
      0.00000000000000E+00   0.00000000000000E+00  -6.32583310916135E-12  -5.32722973754463E-10  -5.39048806863625E-10
     -1.53383919548775E-29
      1.35700000000000E-01
      2.03550000000000E+00   2.03550000000000E+00   0.00000000000000E+00   0.00000000000000E+00   5.24160314113441E-10
      5.66253539820142E-11   5.80785668095455E-10   2.44833638144101E-29   0.00000000000000E+00   0.00000000000000E+00
      0.00000000000000E+00   0.00000000000000E+00  -6.47838667549245E-12  -5.74307281576070E-10  -5.80785668251563E-10
     -1.66448165062393E-29
      1.45700000000000E-01
      2.18550000000000E+00   2.18550000000000E+00   0.00000000000000E+00   0.00000000000000E+00   5.62052881238784E-10
      6.01002914642101E-11   6.22153172702994E-10   2.57414022712770E-29   0.00000000000000E+00   0.00000000000000E+00
      0.00000000000000E+00   0.00000000000000E+00  -6.62702084707975E-12  -6.15526152048459E-10  -6.22153172895539E-10
     -2.15801981447172E-29
      1.55700000000000E-01
      2.33550000000000E+00   2.33550000000000E+00   0.00000000000000E+00   0.00000000000000E+00   5.99694485904306E-10
      6.35069741540593E-11   6.63201460058365E-10  -1.74189940181574E-30   0.00000000000000E+00   0.00000000000000E+00
      0.00000000000000E+00   0.00000000000000E+00  -6.77283357204252E-12  -6.56428626423546E-10  -6.63201459995588E-10
      9.96753546594560E-30
      1.65700000000000E-01
      2.48550000000000E+00   2.48550000000000E+00   0.00000000000000E+00   0.00000000000000E+00   6.37120104135631E-10
      6.68542407810068E-11   7.03974344916637E-10  -7.45145855221176E-30   0.00000000000000E+00   0.00000000000000E+00
      0.00000000000000E+00   0.00000000000000E+00  -6.91662189401378E-12  -6.97057723193575E-10  -7.03974345087589E-10
      3.96765974858029E-30
      1.75700000000000E-01
      2.63550000000000E+00   2.63550000000000E+00   0.00000000000000E+00   0.00000000000000E+00   6.74360196641901E-10
      7.01500429125276E-11   7.44510239554429E-10   5.41924258342674E-30   0.00000000000000E+00   0.00000000000000E+00
      0.00000000000000E+00   0.00000000000000E+00  -7.05897697333829E-12  -7.37451262564379E-10  -7.44510239537717E-10
      7.16114198524247E-30
      1.85700000000000E-01
      2.78550000000000E+00   2.78550000000000E+00   0.00000000000000E+00   0.00000000000000E+00   7.11440861739715E-10
      7.34016064314341E-11   7.84842468171149E-10  -7.35468636322200E-30   0.00000000000000E+00   0.00000000000000E+00
      0.00000000000000E+00   0.00000000000000E+00  -7.20035250103066E-12  -7.77642115834045E-10  -7.84842468335076E-10
     -7.74177511918105E-31
      1.95700000000000E-01
      2.93550000000000E+00   2.93550000000000E+00   0.00000000000000E+00   0.00000000000000E+00   7.48385941606588E-10
      7.66156668608060E-11   8.25001608467394E-10  -2.54510857043077E-29   0.00000000000000E+00   0.00000000000000E+00
      0.00000000000000E+00   0.00000000000000E+00  -7.34112270521239E-12  -8.17660485981444E-10  -8.25001608686656E-10
     -1.10320295448330E-29
      2.05700000000000E-01
      3.08550000000000E+00   3.08550000000000E+00   0.00000000000000E+00   0.00000000000000E+00   7.85215127908617E-10
      7.97985387576077E-11   8.65013666666225E-10   2.36124141135022E-29   0.00000000000000E+00   0.00000000000000E+00
      0.00000000000000E+00   0.00000000000000E+00  -7.48150259969783E-12  -8.57532164173315E-10  -8.65013666773013E-10
     -6.58050885130389E-30
      2.15700000000000E-01
      3.23550000000000E+00   3.23550000000000E+00   0.00000000000000E+00   0.00000000000000E+00   8.21946622266662E-10
      8.29563697992800E-11   9.04902992065942E-10  -6.09664790635508E-30   0.00000000000000E+00   0.00000000000000E+00
      0.00000000000000E+00   0.00000000000000E+00  -7.62284373288102E-12  -8.97280148200793E-10  -9.04902991933674E-10
      1.01610798439251E-29
      2.25700000000000E-01
      3.38550000000000E+00   3.38550000000000E+00   0.00000000000000E+00   0.00000000000000E+00   8.58596394170752E-10
      8.60951121421591E-11   9.44691506312911E-10  -2.44833638144101E-29   0.00000000000000E+00   0.00000000000000E+00
      0.00000000000000E+00   0.00000000000000E+00  -7.76755304541225E-12  -9.36923953133468E-10  -9.44691506178880E-10
      1.83867159080550E-30
      2.35700000000000E-01
      3.53550000000000E+00   3.53550000000000E+00   0.00000000000000E+00   0.00000000000000E+00   8.95178827875131E-10
      8.92206858959655E-11   9.84399513771096E-10  -1.93544377979526E-30   0.00000000000000E+00   0.00000000000000E+00
      0.00000000000000E+00   0.00000000000000E+00  -7.91405605137488E-12  -9.76485457616016E-10  -9.84399513667391E-10
      6.48373666231413E-30
      2.45700000000000E-01
      3.68550000000000E+00   3.68550000000000E+00   0.00000000000000E+00   0.00000000000000E+00   9.31706621196953E-10
      9.23391174482488E-11   1.02404573864520E-09  -9.38690233200702E-30   0.00000000000000E+00   0.00000000000000E+00
      0.00000000000000E+00   0.00000000000000E+00  -8.06311933395682E-12  -1.01598261926510E-09  -1.02404573859905E-09
      8.99981357604797E-30
      2.55700000000000E-01
      3.83550000000000E+00   3.83550000000000E+00   0.00000000000000E+00   0.00000000000000E+00   9.68190822789497E-10
      9.54565993761208E-11   1.06364742216562E-09   2.90316566969289E-29   0.00000000000000E+00   0.00000000000000E+00
      0.00000000000000E+00   0.00000000000000E+00  -8.21528725488095E-12  -1.05543213470183E-09  -1.06364742195671E-09
      9.87076327695584E-30
      2.65700000000000E-01
      3.98550000000000E+00   3.98550000000000E+00   0.00000000000000E+00   0.00000000000000E+00   1.00464116742250E-09
      9.85796029005017E-11   1.10322077032301E-09  -2.80639348070313E-30   0.00000000000000E+00   0.00000000000000E+00
      0.00000000000000E+00   0.00000000000000E+00  -8.37112617612612E-12  -1.09484964421928E-09  -1.10322077039540E-09
      1.35481064585668E-30
      2.75700000000000E-01
      4.13550000000000E+00   4.13550000000000E+00   0.00000000000000E+00   0.00000000000000E+00   1.04106630751003E-09
      1.01714975319578E-10   1.14278128282961E-09  -6.48373666231413E-30   0.00000000000000E+00   0.00000000000000E+00
      0.00000000000000E+00   0.00000000000000E+00  -8.53122718154735E-12  -1.13425005547295E-09  -1.14278128265449E-09
      3.09671004767242E-30
      2.85700000000000E-01
      4.28550000000000E+00   4.28550000000000E+00   0.00000000000000E+00   0.00000000000000E+00   1.07747385445629E-09
      1.04870048380032E-10   1.18234390283632E-09   1.93544377979526E-29   0.00000000000000E+00   0.00000000000000E+00
      0.00000000000000E+00   0.00000000000000E+00  -8.69620767956419E-12  -1.17364769521020E-09  -1.18234390288977E-09
      3.87088755959053E-31
      2.95700000000000E-01
      4.43550000000000E+00   4.43550000000000E+00   0.00000000000000E+00   0.00000000000000E+00   1.11387021638391E-09
      1.08052771682230E-10   1.22192298806614E-09  -8.61272482008892E-30   0.00000000000000E+00   0.00000000000000E+00
      0.00000000000000E+00   0.00000000000000E+00  -8.86671195230957E-12  -1.21305627591502E-09  -1.22192298786732E-09
     -3.48379880363147E-30
      3.05700000000000E-01
      4.58550000000000E+00   4.58550000000000E+00   0.00000000000000E+00   0.00000000000000E+00   1.15026045499154E-09
      1.11271856615021E-10   1.26153231160656E-09  -1.35481064585668E-29   0.00000000000000E+00   0.00000000000000E+00
      0.00000000000000E+00   0.00000000000000E+00  -9.04341163534078E-12  -1.25248889990521E-09  -1.26153231154055E-09
     -1.27739289466487E-29
      3.15700000000000E-01
      4.73550000000000E+00   4.73550000000000E+00   0.00000000000000E+00   0.00000000000000E+00   1.18664832310542E-09
      1.14536940768259E-10   1.30118526387368E-09   2.68058963501644E-29   0.00000000000000E+00   0.00000000000000E+00
      0.00000000000000E+00   0.00000000000000E+00  -9.22700698042121E-12  -1.29195825683139E-09  -1.30118526381181E-09
      6.89017985607114E-29
      3.25700000000000E-01
      4.88550000000000E+00   4.88550000000000E+00   0.00000000000000E+00   0.00000000000000E+00   1.22303640823446E-09
      1.17858750826659E-10   1.34089515906111E-09  -3.94830531078234E-29   0.00000000000000E+00   0.00000000000000E+00
      0.00000000000000E+00   0.00000000000000E+00  -9.41822878830621E-12  -1.33147693015149E-09  -1.34089515893980E-09
     -1.31610177026078E-29
      3.35700000000000E-01
      5.03550000000000E+00   5.03550000000000E+00   0.00000000000000E+00   0.00000000000000E+00   1.25942613571965E-09
      1.21249292147925E-10   1.38067542786757E-09   7.35468636322200E-30   0.00000000000000E+00   0.00000000000000E+00
      0.00000000000000E+00   0.00000000000000E+00  -9.61784009742808E-12  -1.37105758772898E-09  -1.38067542782641E-09
      9.48367452099679E-30
      3.45700000000000E-01
      5.18550000000000E+00   5.18550000000000E+00   0.00000000000000E+00   0.00000000000000E+00   1.29581751059210E-09
      1.24722081437793E-10   1.42053959202989E-09   1.17094348677613E-29   0.00000000000000E+00   0.00000000000000E+00
      0.00000000000000E+00   0.00000000000000E+00  -9.82663700229659E-12  -1.41071295496964E-09  -1.42053959197194E-09
      3.13541892326833E-29
      3.55700000000000E-01
      5.33550000000000E+00   5.33550000000000E+00   0.00000000000000E+00   0.00000000000000E+00   1.33220871976825E-09
      1.28292431182695E-10   1.46050115095095E-09   1.16126626787716E-30   0.00000000000000E+00   0.00000000000000E+00
      0.00000000000000E+00   0.00000000000000E+00  -1.00454490185549E-11  -1.45045570195059E-09  -1.46050115096914E-09
     -2.51607691373384E-30
      3.65700000000000E-01
      5.48550000000000E+00   5.48550000000000E+00   0.00000000000000E+00   0.00000000000000E+00   1.36859581267130E-09
      1.31977775397110E-10   1.50057358806841E-09  -2.32253253575432E-30   0.00000000000000E+00   0.00000000000000E+00
      0.00000000000000E+00   0.00000000000000E+00  -1.02751399983534E-11  -1.49029844824419E-09  -1.50057358824254E-09
     -5.80633133938579E-31
      3.75700000000000E-01
      5.63550000000000E+00   5.63550000000000E+00   0.00000000000000E+00   0.00000000000000E+00   1.40497252342649E-09
      1.35798016733679E-10   1.54077054016017E-09  -9.67721889897631E-30   0.00000000000000E+00   0.00000000000000E+00
      0.00000000000000E+00   0.00000000000000E+00  -1.05166100289595E-11  -1.53025393022165E-09  -1.54077054025061E-09
     -2.88381123189494E-29
      3.85700000000000E-01
      5.78550000000000E+00   5.78550000000000E+00   0.00000000000000E+00   0.00000000000000E+00   1.44133008864507E-09
      1.39775898258091E-10   1.58110598690316E-09  -2.39995028694613E-29   0.00000000000000E+00   0.00000000000000E+00
      0.00000000000000E+00   0.00000000000000E+00  -1.07707977038665E-11  -1.57033518944349E-09  -1.58110598714736E-09
      1.78060827741164E-29
      3.95700000000000E-01
      5.93550000000000E+00   5.93550000000000E+00   0.00000000000000E+00   0.00000000000000E+00   1.47766379133072E-09
      1.43937945020697E-10   1.62160173635142E-09  -1.84834880970448E-29   0.00000000000000E+00   0.00000000000000E+00
      0.00000000000000E+00   0.00000000000000E+00  -1.10386576020576E-11  -1.61056307890025E-09  -1.62160173650231E-09
      2.99993785868266E-29
      4.05700000000000E-01
      6.08550000000000E+00   6.08550000000000E+00   0.00000000000000E+00   0.00000000000000E+00   1.51394095280562E-09
      1.48312622786033E-10   1.66225357559165E-09   5.23537542434619E-29   0.00000000000000E+00   0.00000000000000E+00
      0.00000000000000E+00   0.00000000000000E+00  -1.13212715881763E-11  -1.65093230418311E-09  -1.66225357577129E-09
     -1.83867159080550E-29
      4.15700000000000E-01
      6.23550000000000E+00   6.23550000000000E+00   0.00000000000000E+00   0.00000000000000E+00   1.55010465937447E-09
      1.52931462681976E-10   1.70303612205644E-09   5.90310352837555E-30   0.00000000000000E+00   0.00000000000000E+00
      0.00000000000000E+00   0.00000000000000E+00  -1.16198396629211E-11  -1.69141628239168E-09  -1.70303612205460E-09
     -2.55478578932975E-29
      4.25700000000000E-01
      6.38550000000000E+00   6.38550000000000E+00   0.00000000000000E+00   0.00000000000000E+00   1.58613924575466E-09
      1.57833428242888E-10   1.74397267399755E-09  -1.17094348677613E-29   0.00000000000000E+00   0.00000000000000E+00
      0.00000000000000E+00   0.00000000000000E+00  -1.19354487106268E-11  -1.73203722533387E-09  -1.74397267404450E-09
      1.78060827741164E-29
      4.35700000000000E-01
      6.53550000000000E+00   6.53550000000000E+00   0.00000000000000E+00   0.00000000000000E+00   1.62205010932888E-09
      1.63065589567798E-10   1.78511569889668E-09   1.69351330732085E-29   0.00000000000000E+00   0.00000000000000E+00
      0.00000000000000E+00   0.00000000000000E+00  -1.22691296493865E-11  -1.77284656933758E-09  -1.78511569898696E-09
      3.67734318161100E-30
      4.45700000000000E-01
      6.68550000000000E+00   6.68550000000000E+00   0.00000000000000E+00   0.00000000000000E+00   1.65779230881258E-09
      1.68677256847589E-10   1.82646956566017E-09   1.98382987429014E-29   0.00000000000000E+00   0.00000000000000E+00
      0.00000000000000E+00   0.00000000000000E+00  -1.26221261291522E-11  -1.81384743964583E-09  -1.82646956577498E-09
     -1.79996271520959E-29
      4.55700000000000E-01
      6.83550000000000E+00   6.83550000000000E+00   0.00000000000000E+00   0.00000000000000E+00   1.69332518258503E-09
      1.74724499293059E-10   1.86804968187809E-09  -2.44833638144101E-29   0.00000000000000E+00   0.00000000000000E+00
      0.00000000000000E+00   0.00000000000000E+00  -1.29956978328797E-11  -1.85505398413224E-09  -1.86804968196512E-09
      2.70962129171337E-29
      4.65700000000000E-01
      6.98550000000000E+00   6.98550000000000E+00   0.00000000000000E+00   0.00000000000000E+00   1.72860310426113E-09
      1.81269631349276E-10   1.90987273561040E-09   2.05157040658298E-29   0.00000000000000E+00   0.00000000000000E+00
      0.00000000000000E+00   0.00000000000000E+00  -1.33911548764244E-11  -1.89648158086678E-09  -1.90987273574320E-09
     -2.10963371997684E-29
      4.75700000000000E-01
      7.13550000000000E+00   7.13550000000000E+00   0.00000000000000E+00   0.00000000000000E+00   1.76357518791324E-09
      1.88381100226749E-10   1.95195628813999E-09   4.54829288251887E-30   0.00000000000000E+00   0.00000000000000E+00
      0.00000000000000E+00   0.00000000000000E+00  -1.38098596576423E-11  -1.93814642862818E-09  -1.95195628828582E-09
      1.35481064585668E-30
      4.85700000000000E-01
      7.28550000000000E+00   7.28550000000000E+00   0.00000000000000E+00   0.00000000000000E+00   1.79818571149651E-09
      1.96133049725640E-10   1.99431876122215E-09  -5.83536299608272E-29   0.00000000000000E+00   0.00000000000000E+00
      0.00000000000000E+00   0.00000000000000E+00  -1.42532268033394E-11  -1.98006553458819E-09  -1.99431876139153E-09
     -5.59343252360831E-29
      4.95700000000000E-01
      7.43550000000000E+00   7.43550000000000E+00   0.00000000000000E+00   0.00000000000000E+00   1.83237516950037E-09
      2.04604291724135E-10   2.03697946122450E-09  -1.20965236237204E-29   0.00000000000000E+00   0.00000000000000E+00
      0.00000000000000E+00   0.00000000000000E+00  -1.47227228974155E-11  -2.02225673866302E-09  -2.03697946156044E-09
     -7.04501535845476E-29
      5.05700000000000E-01
      7.58550000000000E+00   7.58550000000000E+00   0.00000000000000E+00   0.00000000000000E+00   1.86608118564457E-09
      2.13877528438392E-10   2.07995871408296E-09  -1.82899437190652E-29   0.00000000000000E+00   0.00000000000000E+00
      0.00000000000000E+00   0.00000000000000E+00  -1.52198668594537E-11  -2.06473884722330E-09  -2.07995871408275E-09
      4.62571063371068E-29
      5.15700000000000E-01
      7.73550000000000E+00   7.73550000000000E+00   0.00000000000000E+00   0.00000000000000E+00   1.89924218267632E-09
      2.24035380703825E-10   2.12327756338014E-09   3.29025442565195E-30   0.00000000000000E+00   0.00000000000000E+00
      0.00000000000000E+00   0.00000000000000E+00  -1.57462246119696E-11  -2.10753133878650E-09  -2.12327756339847E-09
      2.59349466492565E-29
      5.25700000000000E-01
      7.88550000000000E+00   7.88550000000000E+00   0.00000000000000E+00   0.00000000000000E+00   1.93179749538617E-09
      2.35160344234930E-10   2.16695783962110E-09   1.80963993410857E-29   0.00000000000000E+00   0.00000000000000E+00
      0.00000000000000E+00   0.00000000000000E+00  -1.63034063900284E-11  -2.15065443321109E-09  -2.16695783960111E-09
     -2.03221596878503E-29
      5.35700000000000E-01
      8.03550000000000E+00   8.03550000000000E+00   0.00000000000000E+00   0.00000000000000E+00   1.96369073571781E-09
      2.47330929965258E-10   2.21102166568307E-09  -1.64512721282597E-30   0.00000000000000E+00   0.00000000000000E+00
      0.00000000000000E+00   0.00000000000000E+00  -1.68930555125915E-11  -2.19412861014745E-09  -2.21102166566004E-09
      6.19342009534484E-30
      5.45700000000000E-01
      8.18550000000000E+00   8.18550000000000E+00   0.00000000000000E+00   0.00000000000000E+00   1.99487173945514E-09
      2.60619437098272E-10   2.25549117655341E-09   5.51601477241650E-30   0.00000000000000E+00   0.00000000000000E+00
      0.00000000000000E+00   0.00000000000000E+00  -1.75168368859352E-11  -2.23797433971604E-09  -2.25549117660198E-09
      3.87088755959053E-30
      5.55700000000000E-01
      8.33550000000001E+00   8.33550000000001E+00   0.00000000000000E+00   0.00000000000000E+00   2.02529878854419E-09
      2.75089480075836E-10   2.30038826862003E-09   6.87082541827318E-30   0.00000000000000E+00   0.00000000000000E+00
      0.00000000000000E+00   0.00000000000000E+00  -1.81764231868775E-11  -2.28221184547182E-09  -2.30038826865870E-09
      1.19997514347306E-29
      5.65700000000000E-01
      8.48550000000001E+00   8.48550000000001E+00   0.00000000000000E+00   0.00000000000000E+00   2.05494069572995E-09
      2.90793696339605E-10   2.34573439206955E-09  -1.16126626787716E-30   0.00000000000000E+00   0.00000000000000E+00
      0.00000000000000E+00   0.00000000000000E+00  -1.88734788508761E-11  -2.32686091325410E-09  -2.34573439210497E-09
     -2.05157040658298E-29
      5.75700000000000E-01
      8.63550000000000E+00   8.63550000000000E+00   0.00000000000000E+00   0.00000000000000E+00   2.08377786524087E-09
      3.07772576417923E-10   2.39155044165879E-09   1.37416508365464E-29   0.00000000000000E+00   0.00000000000000E+00
      0.00000000000000E+00   0.00000000000000E+00  -1.96096427321693E-11  -2.37194079891150E-09  -2.39155044164367E-09
      5.84504021498169E-29
      5.85700000000000E-01
      8.78550000000000E+00   8.78550000000000E+00   0.00000000000000E+00   0.00000000000000E+00   2.11180375354870E-09
      3.26052770223744E-10   2.43785652377244E-09   3.77411537060076E-30   0.00000000000000E+00   0.00000000000000E+00
      0.00000000000000E+00   0.00000000000000E+00  -2.03865061719649E-11  -2.41747001759328E-09  -2.43785652376525E-09
     -1.66448165062393E-29
      5.95700000000000E-01
      8.93550000000000E+00   8.93550000000000E+00   0.00000000000000E+00   0.00000000000000E+00   2.13902407362247E-09
      3.45647920316691E-10   2.48467199393916E-09   5.61278696140626E-30   0.00000000000000E+00   0.00000000000000E+00
      0.00000000000000E+00   0.00000000000000E+00  -2.12055926211149E-11  -2.46346640129048E-09  -2.48467199391159E-09
     -2.63220354052156E-29
      6.05700000000000E-01
      9.08550000000001E+00   9.08550000000001E+00   0.00000000000000E+00   0.00000000000000E+00   2.16545632566590E-09
      3.66559115825201E-10   2.53201544149110E-09   5.22569820544721E-30   0.00000000000000E+00   0.00000000000000E+00
      0.00000000000000E+00   0.00000000000000E+00  -2.20683344556928E-11  -2.50994710707674E-09  -2.53201544153243E-09
      2.09027928217888E-29
      6.15700000000000E-01
      9.23550000000001E+00   9.23550000000001E+00   0.00000000000000E+00   0.00000000000000E+00   2.19113070904390E-09
      3.88776366278330E-10   2.57990707532223E-09  -5.80633133938579E-30   0.00000000000000E+00   0.00000000000000E+00
      0.00000000000000E+00   0.00000000000000E+00  -2.29760426006496E-11  -2.55693103271389E-09  -2.57990707531454E-09
     -1.81931715300755E-29
      6.25700000000000E-01
      9.38550000000001E+00   9.38550000000001E+00   0.00000000000000E+00   0.00000000000000E+00   2.21609876565460E-09
      4.12281861298112E-10   2.62838062695271E-09  -1.05481685998842E-29   0.00000000000000E+00   0.00000000000000E+00
      0.00000000000000E+00   0.00000000000000E+00  -2.39298456898049E-11  -2.60445078125723E-09  -2.62838062694703E-09
      2.05157040658298E-29
      6.35700000000000E-01
      9.53550000000001E+00   9.53550000000001E+00   0.00000000000000E+00   0.00000000000000E+00   2.24037645606092E-09
      4.37044119817273E-10   2.67742057587820E-09  -1.01610798439251E-29   0.00000000000000E+00   0.00000000000000E+00
      0.00000000000000E+00   0.00000000000000E+00  -2.49308741877005E-11  -2.65248970169342E-09  -2.67742057588112E-09
      5.03215382746768E-29
      6.45700000000000E-01
      9.68550000000001E+00   9.68550000000001E+00   0.00000000000000E+00   0.00000000000000E+00   2.26397587764297E-09
      4.63023801099013E-10   2.72699967874198E-09  -2.90316566969289E-30   0.00000000000000E+00   0.00000000000000E+00
      0.00000000000000E+00   0.00000000000000E+00  -2.59801135727379E-11  -2.70101956516193E-09  -2.72699967873467E-09
     -6.73534435368751E-29
      6.55700000000000E-01
      9.83550000000001E+00   9.83550000000001E+00   0.00000000000000E+00   0.00000000000000E+00   2.28693109898925E-09
      4.90179295502671E-10   2.77711039449192E-09   3.77411537060076E-30   0.00000000000000E+00   0.00000000000000E+00
      0.00000000000000E+00   0.00000000000000E+00  -2.70782811360365E-11  -2.75003211335350E-09  -2.77711039448954E-09
      2.36124141135022E-29
      6.65700000000000E-01
      9.98550000000001E+00   9.98550000000001E+00   0.00000000000000E+00   0.00000000000000E+00   2.30931107296192E-09
      5.18470893617276E-10   2.82778196657920E-09  -1.68383608842188E-29   0.00000000000000E+00   0.00000000000000E+00
      0.00000000000000E+00   0.00000000000000E+00  -2.82257539699854E-11  -2.79955621261478E-09  -2.82778196658476E-09
     -2.09027928217888E-29
      6.75700000000000E-01