DF-ISE text

Info {
  version   = 1.0
  type      = xyplot
  datasets  = [
    "time"
    "ntype OuterVoltage" "ntype InnerVoltage" "ntype QuasiFermiPotential" "ntype DisplacementCurrent" "ntype eCurrent"
    "ntype hCurrent" "ntype TotalCurrent" "ntype Charge" "ptype OuterVoltage" "ptype InnerVoltage"
    "ptype QuasiFermiPotential" "ptype DisplacementCurrent" "ptype eCurrent" "ptype hCurrent" "ptype TotalCurrent"
    "ptype Charge" ]
  functions = [
    Time
    OuterVoltage InnerVoltage QuasiFermiPotential DisplacementCurrent eCurrent
    hCurrent TotalCurrent Charge OuterVoltage InnerVoltage
    QuasiFermiPotential DisplacementCurrent eCurrent hCurrent TotalCurrent
    Charge ]
}

Data {
      0.00000000000000E+00
      0.00000000000000E+00   0.00000000000000E+00   0.00000000000000E+00   0.00000000000000E+00  -1.57805836517412E-24
      1.57805925399763E-24   8.88823505582238E-31  -6.54179997570799E-29   0.00000000000000E+00   0.00000000000000E+00
      0.00000000000000E+00   0.00000000000000E+00   7.43818010386691E-19  -6.52152358938216E-30   7.43818010380170E-19
     -1.69351330732086E-30
      0.00000000000000E+00
      0.00000000000000E+00   0.00000000000000E+00   0.00000000000000E+00   0.00000000000000E+00   6.69533737291766E-19
     -9.75279495385064E-23   6.69436209342228E-19  -2.14834259557274E-29   0.00000000000000E+00   0.00000000000000E+00
      0.00000000000000E+00   0.00000000000000E+00   5.81107824212058E-20  -3.60321840952913E-28   5.81107820608839E-20
      1.56045154745993E-30
      0.00000000000000E+00
      0.00000000000000E+00   0.00000000000000E+00   0.00000000000000E+00   0.00000000000000E+00  -3.34719190714562E-19
      1.08604411939942E-24  -3.34718104670443E-19  -2.59349466492565E-29   0.00000000000000E+00   0.00000000000000E+00
      0.00000000000000E+00   0.00000000000000E+00  -6.62462915455004E-20  -3.99022081440268E-30  -6.62462915494906E-20
     -2.43140124836780E-30
      5.00000000000000E-03
      7.50000000000000E-02   7.50000000000000E-02   0.00000000000000E+00   0.00000000000000E+00   3.55795051351151E-12
      4.53188859555876E-13   4.01113937306738E-12   2.96122898308675E-29   0.00000000000000E+00   0.00000000000000E+00
      0.00000000000000E+00   0.00000000000000E+00  -4.00959040552828E-12  -1.54807104440790E-15  -4.01113847657269E-12
     -3.12090309491986E-30
      1.06666666666667E-02
      1.60000000000000E-01   1.60000000000000E-01   0.00000000000000E+00   0.00000000000000E+00   3.96406525935268E-12
      5.04810366381860E-13   4.46887562573454E-12  -1.11094472960248E-28   0.00000000000000E+00   0.00000000000000E+00
      0.00000000000000E+00   0.00000000000000E+00  -4.46574948416321E-12  -3.12921804418152E-15  -4.46887870220739E-12
      1.81447854355806E-30
      2.06666666666667E-02
      3.10000000000000E-01   3.10000000000000E-01   0.00000000000000E+00   0.00000000000000E+00   4.26889832630792E-12
      5.43543142049234E-13   4.81244146835715E-12  -8.92239582485616E-29   0.00000000000000E+00   0.00000000000000E+00
      0.00000000000000E+00   0.00000000000000E+00  -4.80662519631735E-12  -5.81615865466320E-15  -4.81244135497202E-12
     -4.93538163847792E-30
      3.06666666666667E-02
      4.60000000000000E-01   4.60000000000000E-01   0.00000000000000E+00   0.00000000000000E+00   4.50972918303887E-12
      5.74135362117719E-13   5.08386454515659E-12   1.34513342695771E-29   0.00000000000000E+00   0.00000000000000E+00
      0.00000000000000E+00   0.00000000000000E+00  -5.07537294565616E-12  -8.49149643719874E-15  -5.08386444209336E-12
      1.69351330732085E-31
      4.06666666666667E-02
      6.10000000000000E-01   6.10000000000000E-01   0.00000000000000E+00   0.00000000000000E+00   4.71460573018749E-12
      6.00154487540441E-13   5.31476021772793E-12   8.11918665624113E-29   0.00000000000000E+00   0.00000000000000E+00
      0.00000000000000E+00   0.00000000000000E+00  -5.30362015448184E-12  -1.11402320316267E-14  -5.31476038651347E-12
      5.85471743388067E-30
      5.06666666666667E-02
      7.60000000000000E-01   7.60000000000000E-01   0.00000000000000E+00   0.00000000000000E+00   4.89520653243549E-12
      6.23086011824864E-13   5.51829254426036E-12  -7.25791417423224E-30   0.00000000000000E+00   0.00000000000000E+00
      0.00000000000000E+00   0.00000000000000E+00  -5.50452247234044E-12  -1.37696791200102E-14  -5.51829215146045E-12
     -2.22576034676455E-30
      6.06666666666667E-02
      9.10000000000000E-01   9.10000000000000E-01   0.00000000000000E+00   0.00000000000000E+00   5.05892282897950E-12
      6.43870055749240E-13   5.70279288472874E-12   5.06118548416461E-29   0.00000000000000E+00   0.00000000000000E+00
      0.00000000000000E+00   0.00000000000000E+00  -5.68637008423307E-12  -1.64225052551722E-14  -5.70279258948824E-12
     -2.90316566969289E-30
      7.06666666666667E-02
      1.06000000000000E+00   1.06000000000000E+00   0.00000000000000E+00   0.00000000000000E+00   5.21074899993469E-12
      6.63141549746127E-13   5.87389054968082E-12  -1.79028549631062E-29   0.00000000000000E+00   0.00000000000000E+00
      0.00000000000000E+00   0.00000000000000E+00  -5.85471553533862E-12  -1.91746291830170E-14  -5.87389016452164E-12
     -8.70949700907868E-31
      8.06666666666667E-02
      1.21000000000000E+00   1.21000000000000E+00   0.00000000000000E+00   0.00000000000000E+00   5.35416133740161E-12
      6.81342433038739E-13   6.03550377044035E-12   3.57089377372226E-29   0.00000000000000E+00   0.00000000000000E+00
      0.00000000000000E+00   0.00000000000000E+00  -6.01345841042806E-12  -2.20454526402526E-14  -6.03550386306831E-12
     -1.20965236237204E-30
      9.06666666666667E-02
      1.36000000000000E+00   1.36000000000000E+00   0.00000000000000E+00   0.00000000000000E+00   5.49144548951036E-12
      6.98762901771833E-13   6.19020839128220E-12  -3.19348223666218E-30   0.00000000000000E+00   0.00000000000000E+00
      0.00000000000000E+00   0.00000000000000E+00  -6.16544879207751E-12  -2.47585876388067E-14  -6.19020737971631E-12
     -8.70949700907868E-30
      1.00666666666667E-01
      1.51000000000000E+00   1.51000000000000E+00   0.00000000000000E+00   0.00000000000000E+00   5.62423804187113E-12
      7.15611339110916E-13   6.33984938098204E-12  -6.29019228433460E-30   0.00000000000000E+00   0.00000000000000E+00
      0.00000000000000E+00   0.00000000000000E+00  -6.31284452992369E-12  -2.70044438854681E-14  -6.33984897380916E-12
      7.83854730817081E-30
      1.10666666666667E-01
      1.66000000000000E+00   1.66000000000000E+00   0.00000000000000E+00   0.00000000000000E+00   5.75408766465489E-12
      7.32084298034988E-13   6.48617196268988E-12   9.91914937145072E-29   0.00000000000000E+00   0.00000000000000E+00
      0.00000000000000E+00   0.00000000000000E+00  -6.45733341871611E-12  -2.88393369334782E-14  -6.48617275564959E-12
      1.93544377979526E-30
      1.20666666666667E-01
      1.81000000000000E+00   1.81000000000000E+00   0.00000000000000E+00   0.00000000000000E+00   5.88233061405316E-12
      7.48350808738263E-13   6.63068142279143E-12   1.85802602860345E-29   0.00000000000000E+00   0.00000000000000E+00
      0.00000000000000E+00   0.00000000000000E+00  -6.60027674355056E-12  -3.04024898523488E-14  -6.63067923340291E-12
     -7.83854730817081E-30
      1.30666666666667E-01
      1.96000000000000E+00   1.96000000000000E+00   0.00000000000000E+00   0.00000000000000E+00   6.01003027744093E-12
      7.64547098543179E-13   6.77457737598411E-12  -3.85153312179257E-29   0.00000000000000E+00   0.00000000000000E+00
      0.00000000000000E+00   0.00000000000000E+00  -6.74280521624671E-12  -3.17730858067621E-14  -6.77457830205347E-12
      6.58050885130389E-30
      1.40666666666667E-01
      2.11000000000000E+00   2.11000000000000E+00   0.00000000000000E+00   0.00000000000000E+00   6.13812361286665E-12
      7.80790780005757E-13   6.91891439287240E-12  -1.30642455136180E-29   0.00000000000000E+00   0.00000000000000E+00
      0.00000000000000E+00   0.00000000000000E+00  -6.88588444851536E-12  -3.30302618809406E-14  -6.91891471039630E-12
      5.51601477241650E-30
      1.50666666666667E-01
      2.26000000000000E+00   2.26000000000000E+00   0.00000000000000E+00   0.00000000000000E+00   6.26739326305636E-12
      7.97181568996868E-13   7.06457483205323E-12   5.29343873774004E-29   0.00000000000000E+00   0.00000000000000E+00
      0.00000000000000E+00   0.00000000000000E+00  -7.03036210304875E-12  -3.42128077959017E-14  -7.06457491084465E-12
     -1.29674733246283E-29
      1.60666666666667E-01
      2.41000000000000E+00   2.41000000000000E+00   0.00000000000000E+00   0.00000000000000E+00   6.39852347137397E-12
      8.13806055062930E-13   7.21232952643690E-12  -3.34831773904580E-29   0.00000000000000E+00   0.00000000000000E+00
      0.00000000000000E+00   0.00000000000000E+00  -7.17700106763473E-12  -3.53278603239768E-14  -7.21232892795871E-12
      3.77411537060076E-30
      1.70666666666667E-01
      2.56000000000000E+00   2.56000000000000E+00   0.00000000000000E+00   0.00000000000000E+00   6.53216139113256E-12
      8.30746236733935E-13   7.36290762786650E-12  -1.08771940424494E-28   0.00000000000000E+00   0.00000000000000E+00
      0.00000000000000E+00   0.00000000000000E+00  -7.32650477451722E-12  -3.64016634383331E-14  -7.36290643795555E-12
     -6.58050885130389E-30
      1.80666666666667E-01
      2.71000000000000E+00   2.71000000000000E+00   0.00000000000000E+00   0.00000000000000E+00   6.66893142363022E-12
      8.48081268635162E-13   7.51701269226538E-12   5.62246418030524E-29   0.00000000000000E+00   0.00000000000000E+00
      0.00000000000000E+00   0.00000000000000E+00  -7.47953558365481E-12  -3.74764853338097E-14  -7.51701206898862E-12
      2.12898815777479E-30
      1.90666666666667E-01
      2.86000000000000E+00   2.86000000000000E+00   0.00000000000000E+00   0.00000000000000E+00   6.80942840038303E-12
      8.65886227491179E-13   7.67531462787421E-12   3.96765974858029E-30   0.00000000000000E+00   0.00000000000000E+00
      0.00000000000000E+00   0.00000000000000E+00  -7.63672937191898E-12  -3.85853348112379E-14  -7.67531470673022E-12
     -1.43222839704849E-29
      2.00666666666667E-01
      3.01000000000000E+00   3.01000000000000E+00   0.00000000000000E+00   0.00000000000000E+00   6.95421450091487E-12
      8.84231977399267E-13   7.83844647831414E-12   5.99019849846634E-29   0.00000000000000E+00   0.00000000000000E+00
      0.00000000000000E+00   0.00000000000000E+00  -7.79870715336711E-12  -3.97390186943820E-14  -7.83844617206149E-12
      1.32577898915975E-29
      2.10666666666667E-01
      3.16000000000000E+00   3.16000000000000E+00   0.00000000000000E+00   0.00000000000000E+00   7.10384001899677E-12
      9.03188261662155E-13   8.00702828065892E-12   6.87082541827318E-30   0.00000000000000E+00   0.00000000000000E+00
      0.00000000000000E+00   0.00000000000000E+00  -7.96608374166850E-12  -4.09447008207033E-14  -8.00702844248920E-12
      4.64506507150863E-30
      2.20666666666667E-01
      3.31000000000000E+00   3.31000000000000E+00   0.00000000000000E+00   0.00000000000000E+00   7.25887372499899E-12
      9.22826635708969E-13   8.18170036070796E-12   3.31928608234888E-29   0.00000000000000E+00   0.00000000000000E+00
      0.00000000000000E+00   0.00000000000000E+00  -8.13947567558945E-12  -4.22245529444392E-14  -8.18170022853389E-12
     -1.79996271520959E-29
      2.30666666666667E-01
      3.46000000000000E+00   3.46000000000000E+00   0.00000000000000E+00   0.00000000000000E+00   7.41989987050396E-12
      9.43220915008820E-13   8.36312078551278E-12   2.03221596878503E-30   0.00000000000000E+00   0.00000000000000E+00
      0.00000000000000E+00   0.00000000000000E+00  -8.31950723556206E-12  -4.36135930944323E-14  -8.36312082865650E-12
     -2.67091241611746E-29
      2.40666666666667E-01
      3.61000000000000E+00   3.61000000000000E+00   0.00000000000000E+00   0.00000000000000E+00   7.58752525771549E-12
      9.64447469546386E-13   8.55197272726187E-12   3.86121034069155E-29   0.00000000000000E+00   0.00000000000000E+00
      0.00000000000000E+00   0.00000000000000E+00  -8.50681537014723E-12  -4.51571545856314E-14  -8.55197252473287E-12
     -8.12886387514010E-30
      2.50666666666667E-01
      3.76000000000000E+00   3.76000000000000E+00   0.00000000000000E+00   0.00000000000000E+00   7.76237827039872E-12
      9.86585588479800E-13   8.74896385887852E-12  -5.83536299608272E-29   0.00000000000000E+00   0.00000000000000E+00
      0.00000000000000E+00   0.00000000000000E+00  -8.70205463521195E-12  -4.69097262253597E-14  -8.74896436143731E-12
      9.29013014301726E-30
      2.60666666666667E-01
      3.91000000000000E+00   3.91000000000000E+00   0.00000000000000E+00   0.00000000000000E+00   7.94511246942575E-12
      1.00971728371627E-12   8.95482975314202E-12  -4.28700797224651E-29   0.00000000000000E+00   0.00000000000000E+00
      0.00000000000000E+00   0.00000000000000E+00  -8.90590066868367E-12  -4.89293954535971E-14  -8.95483006413726E-12
      3.67734318161100E-30
      2.70666666666667E-01
      4.06000000000000E+00   4.06000000000000E+00   0.00000000000000E+00   0.00000000000000E+00   8.13640081372254E-12
      1.03392724786058E-12   9.17032806158312E-12  -1.16707259921654E-28   0.00000000000000E+00   0.00000000000000E+00
      0.00000000000000E+00   0.00000000000000E+00  -9.11905373307345E-12  -5.12741897484726E-14  -9.17032792282192E-12
     -1.83867159080550E-29
      2.80666666666667E-01
      4.21000000000000E+00   4.21000000000000E+00   0.00000000000000E+00   0.00000000000000E+00   8.33694427890239E-12
      1.05930361731071E-12   9.39624789621310E-12   2.41930472474408E-29   0.00000000000000E+00   0.00000000000000E+00
      0.00000000000000E+00   0.00000000000000E+00  -9.34224167529076E-12  -5.40059685145899E-14  -9.39624764380535E-12
     -1.93544377979526E-29
      2.90666666666667E-01
      4.36000000000000E+00   4.36000000000000E+00   0.00000000000000E+00   0.00000000000000E+00   8.54748182585207E-12
      1.08593920308241E-12   9.63342102893448E-12   1.06449407888739E-30   0.00000000000000E+00   0.00000000000000E+00
      0.00000000000000E+00   0.00000000000000E+00  -9.57622243579540E-12  -5.71989003634049E-14  -9.63342133615881E-12
     -1.21932958127102E-29
      3.00666666666667E-01
      4.51000000000000E+00   4.51000000000000E+00   0.00000000000000E+00   0.00000000000000E+00   8.76879909506654E-12
      1.11393233062211E-12   9.88273142568865E-12   5.36117927003288E-29   0.00000000000000E+00   0.00000000000000E+00
      0.00000000000000E+00   0.00000000000000E+00  -9.82178647943834E-12  -6.09447768514862E-14  -9.88273125628982E-12
     -2.51607691373384E-29
      3.10666666666667E-01
      4.66000000000000E+00   4.66000000000000E+00   0.00000000000000E+00   0.00000000000000E+00   9.00172480403091E-12
      1.14338706980112E-12   1.01451118738320E-11  -5.59343252360831E-29   0.00000000000000E+00   0.00000000000000E+00
      0.00000000000000E+00   0.00000000000000E+00  -1.00797585947225E-11  -6.53532294573584E-14  -1.01451118241798E-11
     -2.65155797831951E-29
      3.20666666666667E-01
      4.81000000000000E+00   4.81000000000000E+00   0.00000000000000E+00   0.00000000000000E+00   9.24713706805774E-12
      1.17441332381063E-12   1.04215503918684E-11   2.56446300822872E-29   0.00000000000000E+00   0.00000000000000E+00
      0.00000000000000E+00   0.00000000000000E+00  -1.03509996071042E-11  -7.05510017801721E-14  -1.04215506088844E-11
     -1.93544377979526E-31
      3.30666666666667E-01
      4.96000000000000E+00   4.96000000000000E+00   0.00000000000000E+00   0.00000000000000E+00   9.50596434957055E-12
      1.20712711716088E-12   1.07130914667314E-11   2.91284288859187E-29   0.00000000000000E+00   0.00000000000000E+00
      0.00000000000000E+00   0.00000000000000E+00  -1.06364078304349E-11  -7.66833286913323E-14  -1.07130911591262E-11
     -4.64506507150863E-30
      3.40666666666667E-01
      5.11000000000000E+00   5.11000000000000E+00   0.00000000000000E+00   0.00000000000000E+00   9.77918613613034E-12
      1.24165106488973E-12   1.10208372010201E-11  -1.23868401906897E-29   0.00000000000000E+00   0.00000000000000E+00
      0.00000000000000E+00   0.00000000000000E+00  -1.09369199607393E-11  -8.39172951962554E-14  -1.10208372559355E-11
      1.23868401906897E-29
      3.50666666666667E-01
      5.26000000000000E+00   5.26000000000000E+00   0.00000000000000E+00   0.00000000000000E+00   1.00678425462579E-11
      1.27811481449360E-12   1.13459573607515E-11  -5.39021092672981E-29   0.00000000000000E+00   0.00000000000000E+00
      0.00000000000000E+00   0.00000000000000E+00  -1.12535119032828E-11  -9.24452293255319E-14  -1.13459571326083E-11
      1.76125383961369E-29
      3.60666666666667E-01
      5.41000000000000E+00   5.41000000000000E+00   0.00000000000000E+00   0.00000000000000E+00   1.03730306671049E-11
      1.31665529816045E-12   1.16896859652653E-11   4.05475471867108E-29   0.00000000000000E+00   0.00000000000000E+00
      0.00000000000000E+00   0.00000000000000E+00  -1.15871988881263E-11  -1.02486932362145E-13  -1.16896858204884E-11
     -6.96759760726295E-30
      3.70666666666667E-01
      5.56000000000000E+00   5.56000000000000E+00   0.00000000000000E+00   0.00000000000000E+00   1.06959094588074E-11
      1.35741684555157E-12   1.20533263043590E-11  -7.22888251753531E-29   0.00000000000000E+00   0.00000000000000E+00
      0.00000000000000E+00   0.00000000000000E+00  -1.19390354262452E-11  -1.14291264222083E-13  -1.20533266904673E-11
      4.83860944948816E-30
      3.80666666666667E-01
      5.71000000000000E+00   5.71000000000000E+00   0.00000000000000E+00   0.00000000000000E+00   1.10377010698934E-11
      1.40055130502189E-12   1.24382523749153E-11  -1.37416508365464E-29   0.00000000000000E+00   0.00000000000000E+00
      0.00000000000000E+00   0.00000000000000E+00  -1.23101146055876E-11  -1.28137997784690E-13  -1.24382526033723E-11
      2.78703904290518E-29
      3.90666666666667E-01
      5.86000000000000E+00   5.86000000000000E+00   0.00000000000000E+00   0.00000000000000E+00   1.13996891208868E-11
      1.44621813007649E-12   1.28459072509633E-11  -3.19348223666218E-29   0.00000000000000E+00   0.00000000000000E+00
      0.00000000000000E+00   0.00000000000000E+00  -1.27015668388237E-11  -1.44340296249791E-13  -1.28459071350735E-11
     -1.70319052621983E-29
      4.00666666666667E-01
      6.01000000000000E+00   6.01000000000000E+00   0.00000000000000E+00   0.00000000000000E+00   1.17832212620821E-11
      1.49458447247284E-12   1.32778057345549E-11   8.47724375550325E-29   0.00000000000000E+00   0.00000000000000E+00
      0.00000000000000E+00   0.00000000000000E+00  -1.31145580304314E-11  -1.63247677943655E-13  -1.32778057083751E-11
      3.77411537060076E-29
      4.10666666666667E-01
      6.16000000000000E+00   6.16000000000000E+00   0.00000000000000E+00   0.00000000000000E+00   1.21897112136064E-11
      1.54582522798392E-12   1.37355364415903E-11   4.45152069352910E-30   0.00000000000000E+00   0.00000000000000E+00
      0.00000000000000E+00   0.00000000000000E+00  -1.35502871603071E-11  -1.85249283415015E-13  -1.37355364437221E-11
      1.91608934199731E-29
      4.20666666666667E-01
      6.31000000000000E+00   6.31000000000000E+00   0.00000000000000E+00   0.00000000000000E+00   1.26206378631525E-11
      1.60012305225565E-12   1.42207609154082E-11  -3.92895087298438E-29   0.00000000000000E+00   0.00000000000000E+00
      0.00000000000000E+00   0.00000000000000E+00  -1.40099831041306E-11  -2.10777601372146E-13  -1.42207607055028E-11
      5.99987571736531E-30
      4.30666666666667E-01
      6.46000000000000E+00   6.46000000000000E+00   0.00000000000000E+00   0.00000000000000E+00   1.30775451693441E-11
      1.65766839044688E-12   1.47352135597910E-11   5.98052127956736E-29   0.00000000000000E+00   0.00000000000000E+00
      0.00000000000000E+00   0.00000000000000E+00  -1.44949007517083E-11  -2.40313001378814E-13  -1.47352137530871E-11
     -1.45158283484645E-29
      4.40666666666667E-01
      6.61000000000000E+00   6.61000000000000E+00   0.00000000000000E+00   0.00000000000000E+00   1.35620461465235E-11
      1.71865947810767E-12   1.52807056246312E-11  -5.99019849846634E-29   0.00000000000000E+00   0.00000000000000E+00
      0.00000000000000E+00   0.00000000000000E+00  -1.50063163674663E-11  -2.74389097657788E-13  -1.52807054651241E-11
     -3.87088755959053E-31
      4.50666666666667E-01
      6.76000000000000E+00   6.76000000000000E+00   0.00000000000000E+00   0.00000000000000E+00   1.40758182466139E-11
      1.78330231196056E-12   1.58591205585745E-11  -1.54835502383621E-29   0.00000000000000E+00   0.00000000000000E+00
      0.00000000000000E+00   0.00000000000000E+00  -1.55455220446044E-11  -3.13598444637175E-13  -1.58591204892415E-11
      5.80633133938579E-31
      4.60666666666667E-01
      6.91000000000000E+00   6.91000000000000E+00   0.00000000000000E+00   0.00000000000000E+00   1.46206064846903E-11
      1.85181044266965E-12   1.64724169273599E-11   6.34825559772846E-29   0.00000000000000E+00   0.00000000000000E+00
      0.00000000000000E+00   0.00000000000000E+00  -1.61138192689940E-11  -3.58597938333698E-13  -1.64724172073277E-11
      1.21932958127102E-29
      4.70666666666667E-01
      7.06000000000000E+00   7.06000000000000E+00   0.00000000000000E+00   0.00000000000000E+00   1.51982205707975E-11
      1.92440466935201E-12   1.71226252401495E-11  -2.02253874988605E-29   0.00000000000000E+00   0.00000000000000E+00
      0.00000000000000E+00   0.00000000000000E+00  -1.67125115296318E-11  -4.10113732579859E-13  -1.71226252622116E-11
      8.70949700907868E-30
      4.80666666666667E-01
      7.21000000000000E+00   7.21000000000000E+00   0.00000000000000E+00   0.00000000000000E+00   1.58105293334508E-11
      2.00131251390350E-12   1.78118418473543E-11  -4.34507128564036E-29   0.00000000000000E+00   0.00000000000000E+00
      0.00000000000000E+00   0.00000000000000E+00  -1.73428959507695E-11  -4.68945983013280E-13  -1.78118419337828E-11
      2.98058342088470E-29
      4.90666666666667E-01
      7.36000000000000E+00   7.36000000000000E+00   0.00000000000000E+00   0.00000000000000E+00   1.64594601147341E-11
      2.08276763096220E-12   1.85422277456963E-11   7.08372423405066E-29   0.00000000000000E+00   0.00000000000000E+00
      0.00000000000000E+00   0.00000000000000E+00  -1.80062538759122E-11  -5.35973833817133E-13  -1.85422277097294E-11
      3.25154555005604E-29
      5.00666666666667E-01
      7.51000000000000E+00   7.51000000000000E+00   0.00000000000000E+00   0.00000000000000E+00   1.71469920877971E-11
      2.16900921822058E-12   1.93160013060177E-11  -2.69026685391541E-29   0.00000000000000E+00   0.00000000000000E+00
      0.00000000000000E+00   0.00000000000000E+00  -1.87038404766287E-11  -6.12160849779343E-13  -1.93160013264081E-11
     -1.27739289466487E-29
      5.10666666666667E-01
      7.66000000000000E+00   7.66000000000000E+00   0.00000000000000E+00   0.00000000000000E+00   1.78751529558793E-11
      2.26028124100393E-12   2.01354341968832E-11  -3.83217868399462E-29   0.00000000000000E+00   0.00000000000000E+00
      0.00000000000000E+00   0.00000000000000E+00  -1.94368733712069E-11  -6.98560900752906E-13  -2.01354342719598E-11
      1.78060827741164E-29
      5.20666666666667E-01
      7.81000000000000E+00   7.81000000000000E+00   0.00000000000000E+00   0.00000000000000E+00   1.86460128830900E-11
      2.35683172485287E-12   2.10028446079428E-11  -4.48055235022603E-29   0.00000000000000E+00   0.00000000000000E+00
      0.00000000000000E+00   0.00000000000000E+00  -2.02065202876526E-11  -7.96324448137237E-13  -2.10028447357898E-11
     -7.74177511918105E-30
      5.30666666666667E-01
      7.96000000000000E+00   7.96000000000000E+00   0.00000000000000E+00   0.00000000000000E+00   1.94616790937070E-11
      2.45891185309276E-12   2.19205909467998E-11  -3.38702661464171E-30   0.00000000000000E+00   0.00000000000000E+00
      0.00000000000000E+00   0.00000000000000E+00  -2.10138858481422E-11  -9.06705192439235E-13  -2.19205910405814E-11
      3.48379880363147E-29
      5.40666666666667E-01
      8.11000000000000E+00   8.11000000000000E+00   0.00000000000000E+00   0.00000000000000E+00   2.03242894352461E-11
      2.56677515058695E-12   2.28910645858331E-11   2.77736182400620E-29   0.00000000000000E+00   0.00000000000000E+00
      0.00000000000000E+00   0.00000000000000E+00  -2.18599976112325E-11  -1.03106707085580E-12  -2.28910646820883E-11
      3.90959643518643E-29
      5.50666666666667E-01
      8.26000000000001E+00   8.26000000000001E+00   0.00000000000000E+00   0.00000000000000E+00   2.12360065205992E-11
      2.68067649919097E-12   2.39166830197901E-11   6.84179376157625E-29   0.00000000000000E+00   0.00000000000000E+00
      0.00000000000000E+00   0.00000000000000E+00  -2.27457914420785E-11  -1.17089164860183E-12  -2.39166830906803E-11
     -1.16126626787716E-30
      5.60666666666667E-01
      8.41000000000001E+00   8.41000000000001E+00   0.00000000000000E+00   0.00000000000000E+00   2.21990111814088E-11
      2.80087129924901E-12   2.49998824806579E-11  -7.73209790028208E-29   0.00000000000000E+00   0.00000000000000E+00
      0.00000000000000E+00   0.00000000000000E+00  -2.36720964214136E-11  -1.32778601321389E-12  -2.49998824346275E-11
     -1.35481064585668E-29
      5.70666666666667E-01
      8.56000000000000E+00   8.56000000000000E+00   0.00000000000000E+00   0.00000000000000E+00   2.32154963124021E-11
      2.92761452142627E-12   2.61431108338283E-11  -3.91927365408541E-29   0.00000000000000E+00   0.00000000000000E+00
      0.00000000000000E+00   0.00000000000000E+00  -2.46396195092440E-11  -1.50349130789634E-12  -2.61431108171403E-11
      3.52250767922738E-29
      5.80666666666667E-01
      8.71000000000000E+00   8.71000000000000E+00   0.00000000000000E+00   0.00000000000000E+00   2.42876622079975E-11
      3.06115999773172E-12   2.73488222057292E-11   7.30630026872712E-29   0.00000000000000E+00   0.00000000000000E+00
      0.00000000000000E+00   0.00000000000000E+00  -2.56489302139947E-11  -1.69989197657351E-12  -2.73488221905682E-11
     -2.74833016730927E-29
      5.90666666666667E-01
      8.86000000000000E+00   8.86000000000000E+00   0.00000000000000E+00   0.00000000000000E+00   2.54177115941261E-11
      3.20175964131359E-12   2.86194712354397E-11  -5.41924258342674E-29   0.00000000000000E+00   0.00000000000000E+00
      0.00000000000000E+00   0.00000000000000E+00  -2.67004454920484E-11  -1.91902566857889E-12  -2.86194711606273E-11
      2.28382366015841E-29
      6.00666666666667E-01
      9.01000000000001E+00   9.01000000000001E+00   0.00000000000000E+00   0.00000000000000E+00   2.66078460215505E-11
      3.34966299295136E-12   2.99575090145018E-11   3.45476714693454E-29   0.00000000000000E+00   0.00000000000000E+00
      0.00000000000000E+00   0.00000000000000E+00  -2.77944152892346E-11  -2.16309368963040E-12  -2.99575089788650E-11
      1.19997514347306E-29
      6.10666666666667E-01
      9.16000000000001E+00   9.16000000000001E+00   0.00000000000000E+00   0.00000000000000E+00   2.78602642996895E-11
      3.50511669872422E-12   3.13653809984137E-11   5.12892601645745E-30   0.00000000000000E+00   0.00000000000000E+00
      0.00000000000000E+00   0.00000000000000E+00  -2.89309090221484E-11  -2.43447196163103E-12  -3.13653809837794E-11
      1.93544377979526E-29
      6.20666666666667E-01
      9.31000000000001E+00   9.31000000000001E+00   0.00000000000000E+00   0.00000000000000E+00   2.91771615596760E-11
      3.66836447942083E-12   3.28455260390968E-11   9.73528221237017E-29   0.00000000000000E+00   0.00000000000000E+00
      0.00000000000000E+00   0.00000000000000E+00  -3.01098033739795E-11  -2.73572259296407E-12  -3.28455259669436E-11
     -4.02572306197415E-29
      6.30666666666667E-01
      9.46000000000001E+00   9.46000000000001E+00   0.00000000000000E+00   0.00000000000000E+00   3.05607310348794E-11
      3.83964703701016E-12   3.44003780718896E-11  -3.67734318161100E-30   0.00000000000000E+00   0.00000000000000E+00
      0.00000000000000E+00   0.00000000000000E+00  -3.13307717827531E-11  -3.06960625596224E-12  -3.44003780387154E-11
     -6.19342009534484E-30
      6.40666666666667E-01
      9.61000000000001E+00   9.61000000000001E+00   0.00000000000000E+00   0.00000000000000E+00   3.20131585010322E-11
      4.01921137361048E-12   3.60323698746426E-11  -9.09658576503773E-30   0.00000000000000E+00   0.00000000000000E+00
      0.00000000000000E+00   0.00000000000000E+00  -3.25932744335914E-11  -3.43909547475646E-12  -3.60323699083478E-11
      2.12898815777479E-29
      6.50666666666667E-01
      9.76000000000001E+00   9.76000000000001E+00   0.00000000000000E+00   0.00000000000000E+00   3.35366693323374E-11
      4.20727805739105E-12   3.77439473897284E-11   3.82250146509564E-29   0.00000000000000E+00   0.00000000000000E+00
      0.00000000000000E+00   0.00000000000000E+00  -3.38965575063328E-11  -3.84738982030418E-12  -3.77439473266370E-11
     -6.96759760726295E-30
      6.60666666666667E-01
      9.91000000000001E+00   9.91000000000001E+00   0.00000000000000E+00   0.00000000000000E+00   3.51334833128807E-11
      4.40409061270418E-12   3.95375739255849E-11  -5.23537542434619E-29   0.00000000000000E+00   0.00000000000000E+00
      0.00000000000000E+00   0.00000000000000E+00  -3.52396422158991E-11  -4.29793169674513E-12  -3.95375739126442E-11
      2.43865916254203E-29
      6.70666666666667E-01
      1.00600000000000E+01   1.00600000000000E+01   0.00000000000000E+00   0.00000000000000E+00   3.68058671873762E-11
      4.60988655003117E-12   4.14157537374073E-11  -6.76437601038444E-29   0.00000000000000E+00   0.00000000000000E+00
      0.00000000000000E+00   0.00000000000000E+00  -3.66213284250389E-11  -4.79442532986046E-12  -4.14157537548993E-11
      1.97415265539117E-29
      6.80666666666667E-01