DF-ISE text

Info {
  version   = 1.0
  type      = xyplot
  datasets  = [
    "time"
    "ntype OuterVoltage" "ntype InnerVoltage" "ntype QuasiFermiPotential" "ntype DisplacementCurrent" "ntype eCurrent"
    "ntype hCurrent" "ntype TotalCurrent" "ntype Charge" "ptype OuterVoltage" "ptype InnerVoltage"
    "ptype QuasiFermiPotential" "ptype DisplacementCurrent" "ptype eCurrent" "ptype hCurrent" "ptype TotalCurrent"
    "ptype Charge" ]
  functions = [
    Time
    OuterVoltage InnerVoltage QuasiFermiPotential DisplacementCurrent eCurrent
    hCurrent TotalCurrent Charge OuterVoltage InnerVoltage
    QuasiFermiPotential DisplacementCurrent eCurrent hCurrent TotalCurrent
    Charge ]
}

Data {
      0.00000000000000E+00
      0.00000000000000E+00   0.00000000000000E+00   0.00000000000000E+00   0.00000000000000E+00   1.44197279999979E-08
     -1.44197279999979E-08  -1.29610943499167E-23  -2.41930472474408E-29   0.00000000000000E+00   0.00000000000000E+00
      0.00000000000000E+00   0.00000000000000E+00   4.23098450148043E-29  -3.43044301043785E-24  -3.43040070059283E-24
      4.53619635889515E-31
      0.00000000000000E+00
      0.00000000000000E+00   0.00000000000000E+00   0.00000000000000E+00   0.00000000000000E+00  -1.09931000420608E-06
      1.00273753629860E-06  -9.65724679074835E-08  -9.67721889897631E-30   0.00000000000000E+00   0.00000000000000E+00
      0.00000000000000E+00   0.00000000000000E+00   4.34617875784771E-09   6.90505050417585E-12   4.35308380835188E-09
     -4.89909206760676E-31
      0.00000000000000E+00
      0.00000000000000E+00   0.00000000000000E+00   0.00000000000000E+00   0.00000000000000E+00   3.05803872596946E-09
     -3.06292658822499E-09  -4.88786225552714E-12   2.48704525703691E-29   0.00000000000000E+00   0.00000000000000E+00
      0.00000000000000E+00   0.00000000000000E+00   1.22872318469776E-11  -7.39936985232478E-12   4.88786199465279E-12
      5.67024544861893E-33
      5.00000000000000E-03
      7.50000000000000E-02   7.50000000000000E-02   0.00000000000000E+00   0.00000000000000E+00   3.08603694812309E-09
     -3.06079257320604E-09   2.52443749170516E-11   4.04507749977210E-29   0.00000000000000E+00   0.00000000000000E+00
      0.00000000000000E+00   0.00000000000000E+00   3.46161698520671E-13  -2.55905370998763E-11  -2.52443754013557E-11
     -4.20354195924284E-31
      1.26666666666667E-02
      1.90000000000000E-01   1.90000000000000E-01   0.00000000000000E+00   0.00000000000000E+00   3.12571900700326E-09
     -3.05751853316227E-09   6.82004738409832E-11   1.49996892934133E-29   0.00000000000000E+00   0.00000000000000E+00
      0.00000000000000E+00   0.00000000000000E+00  -2.86333023895609E-12  -6.53371429430179E-11  -6.82004731819740E-11
     -2.78220043345569E-31
      2.26666666666667E-02
      3.40000000000000E-01   3.40000000000000E-01   0.00000000000000E+00   0.00000000000000E+00   3.17561909187677E-09
     -3.05336563359243E-09   1.22253458284336E-10  -7.36436358212097E-29   0.00000000000000E+00   0.00000000000000E+00
      0.00000000000000E+00   0.00000000000000E+00  -3.84843049464416E-12  -1.18405027817861E-10  -1.22253458312506E-10
     -1.64512721282597E-30
      3.26666666666667E-02
      4.90000000000000E-01   4.90000000000000E-01   0.00000000000000E+00   0.00000000000000E+00   3.22406033895522E-09
     -3.04935268388342E-09   1.74707655071798E-10  -2.21608312786558E-29   0.00000000000000E+00   0.00000000000000E+00
      0.00000000000000E+00   0.00000000000000E+00  -4.43049463807686E-12  -1.70277161078240E-10  -1.74707655716317E-10
     -2.95155176418778E-30
      4.26666666666667E-02
      6.40000000000000E-01   6.40000000000000E-01   0.00000000000000E+00   0.00000000000000E+00   3.27137437912781E-09
     -3.04545470393052E-09   2.25919675197289E-10   3.98701418637824E-29   0.00000000000000E+00   0.00000000000000E+00
      0.00000000000000E+00   0.00000000000000E+00  -4.84264301646915E-12  -2.21077031895298E-10  -2.25919674911767E-10
     -2.44349777199152E-30
      5.26666666666667E-02
      7.90000000000000E-01   7.90000000000000E-01   0.00000000000000E+00   0.00000000000000E+00   3.31777037309716E-09
     -3.04165408344649E-09   2.76116289650669E-10  -1.95479821759322E-29   0.00000000000000E+00   0.00000000000000E+00
      0.00000000000000E+00   0.00000000000000E+00  -5.16184132850754E-12  -2.70954448455402E-10  -2.76116289783909E-10
      6.36277142607693E-30
      6.26666666666667E-02
      9.40000000000000E-01   9.40000000000000E-01   0.00000000000000E+00   0.00000000000000E+00   3.36340093532182E-09
     -3.03793739550563E-09   3.25463539816187E-10  -3.09671004767242E-29   0.00000000000000E+00   0.00000000000000E+00
      0.00000000000000E+00   0.00000000000000E+00  -5.42522983982822E-12  -3.20038309782548E-10  -3.25463539622376E-10
      3.09671004767242E-30
      7.26666666666667E-02
      1.09000000000000E+00   1.09000000000000E+00   0.00000000000000E+00   0.00000000000000E+00   3.40838714961639E-09
     -3.03429375939513E-09   3.74093390221268E-10  -8.95142748155309E-29   0.00000000000000E+00   0.00000000000000E+00
      0.00000000000000E+00   0.00000000000000E+00  -5.65305056318604E-12  -3.68440339477132E-10  -3.74093390040318E-10
      8.17724996963498E-30
      8.26666666666667E-02
      1.24000000000000E+00   1.24000000000000E+00   0.00000000000000E+00   0.00000000000000E+00   3.45282957014893E-09
     -3.03071405180053E-09   4.22115518348400E-10   1.08384851668535E-29   0.00000000000000E+00   0.00000000000000E+00
      0.00000000000000E+00   0.00000000000000E+00  -5.85730895891953E-12  -4.16258209417997E-10  -4.22115518376916E-10
      7.11275589074759E-30
      9.26666666666667E-02
      1.39000000000000E+00   1.39000000000000E+00   0.00000000000000E+00   0.00000000000000E+00   3.49681397509904E-09
     -3.02719046813847E-09   4.69623506960569E-10  -4.16120412655981E-30   0.00000000000000E+00   0.00000000000000E+00
      0.00000000000000E+00   0.00000000000000E+00  -6.04557663476038E-12  -4.63577930834906E-10  -4.69623507469667E-10
     -1.98382987429014E-30
      1.02666666666667E-01
      1.54000000000000E+00   1.54000000000000E+00   0.00000000000000E+00   0.00000000000000E+00   3.54041480392448E-09
     -3.02371624264179E-09   5.16698561282682E-10  -4.31603962894344E-29   0.00000000000000E+00   0.00000000000000E+00
      0.00000000000000E+00   0.00000000000000E+00  -6.22283845820977E-12  -5.10475722708865E-10  -5.16698561167074E-10
      1.30158594191231E-29
      1.12666666666667E-01
      1.69000000000000E+00   1.69000000000000E+00   0.00000000000000E+00   0.00000000000000E+00   3.58369742783739E-09
     -3.02028545963471E-09   5.63411968202682E-10   7.83854730817081E-30   0.00000000000000E+00   0.00000000000000E+00
      0.00000000000000E+00   0.00000000000000E+00  -6.39246808675364E-12  -5.57019500222117E-10  -5.63411968308871E-10
     -1.64512721282597E-30
      1.22666666666667E-01
      1.84000000000000E+00   1.84000000000000E+00   0.00000000000000E+00   0.00000000000000E+00   3.62671976775250E-09
     -3.01689290276508E-09   6.09826864987415E-10  -3.80314702729769E-29   0.00000000000000E+00   0.00000000000000E+00
      0.00000000000000E+00   0.00000000000000E+00  -6.55678623680906E-12  -6.03270077626015E-10  -6.09826863862824E-10
      1.61609555612904E-29
      1.32666666666667E-01
      1.99000000000000E+00   1.99000000000000E+00   0.00000000000000E+00   0.00000000000000E+00   3.66953351518028E-09
     -3.01353395400540E-09   6.55999561174883E-10  -1.74189940181574E-29   0.00000000000000E+00   0.00000000000000E+00
      0.00000000000000E+00   0.00000000000000E+00  -6.71740631619459E-12  -6.49282154146248E-10  -6.55999560462443E-10
      2.41930472474408E-30
      1.42666666666667E-01
      2.14000000000000E+00   2.14000000000000E+00   0.00000000000000E+00   0.00000000000000E+00   3.71218509435643E-09
     -3.01020449541941E-09   7.01980598937026E-10  -2.76768460510723E-29   0.00000000000000E+00   0.00000000000000E+00
      0.00000000000000E+00   0.00000000000000E+00  -6.87546378227599E-12  -6.95105135365793E-10  -7.01980599148069E-10
     -9.38690233200702E-30
      1.52666666666667E-01
      2.29000000000000E+00   2.29000000000000E+00   0.00000000000000E+00   0.00000000000000E+00   3.75471644621585E-09
     -3.00690084088115E-09   7.47815605334705E-10   1.97415265539117E-29   0.00000000000000E+00   0.00000000000000E+00
      0.00000000000000E+00   0.00000000000000E+00  -7.03177637626252E-12  -7.40783829367168E-10  -7.47815605743431E-10
      1.74189940181574E-29
      1.62666666666667E-01
      2.44000000000000E+00   2.44000000000000E+00   0.00000000000000E+00   0.00000000000000E+00   3.79716568220381E-09
     -3.00361967716966E-09   7.93546005034152E-10   1.59674111833109E-29   0.00000000000000E+00   0.00000000000000E+00
      0.00000000000000E+00   0.00000000000000E+00  -7.18695954880910E-12  -7.86359045534503E-10  -7.93546005083312E-10
     -9.96753546594560E-30
      1.72666666666667E-01
      2.59000000000000E+00   2.59000000000000E+00   0.00000000000000E+00   0.00000000000000E+00   3.83956763765596E-09
     -3.00035801247012E-09   8.39209625185843E-10  -6.29019228433460E-30   0.00000000000000E+00   0.00000000000000E+00
      0.00000000000000E+00   0.00000000000000E+00  -7.34151065049165E-12  -8.31868114760586E-10  -8.39209625411078E-10
      1.38384230255361E-29
      1.82666666666667E-01
      2.74000000000000E+00   2.74000000000000E+00   0.00000000000000E+00   0.00000000000000E+00   3.88195435030098E-09
     -2.99711312941915E-09   8.84841220881830E-10  -9.67721889897631E-31   0.00000000000000E+00   0.00000000000000E+00
      0.00000000000000E+00   0.00000000000000E+00  -7.49566950783786E-12  -8.77345550774910E-10  -8.84841220282748E-10
     -5.51601477241650E-30
      1.92666666666667E-01
      2.89000000000000E+00   2.89000000000000E+00   0.00000000000000E+00   0.00000000000000E+00   3.92435536209217E-09
     -2.99388256193611E-09   9.30472800156059E-10  -2.12898815777479E-29   0.00000000000000E+00   0.00000000000000E+00
      0.00000000000000E+00   0.00000000000000E+00  -7.65260696686319E-12  -9.22820194471993E-10  -9.30472801438856E-10
      2.58381744602668E-29
      2.02666666666667E-01
      3.04000000000000E+00   3.04000000000000E+00   0.00000000000000E+00   0.00000000000000E+00   3.96679824160041E-09
     -2.99066404016317E-09   9.76134201437240E-10  -2.90316566969289E-30   0.00000000000000E+00   0.00000000000000E+00
      0.00000000000000E+00   0.00000000000000E+00  -7.81259008397936E-12  -9.68321612466659E-10  -9.76134202550638E-10
     -1.29674733246283E-29
      2.12666666666667E-01
      3.19000000000000E+00   3.19000000000000E+00   0.00000000000000E+00   0.00000000000000E+00   4.00930881361078E-09
     -2.98745548192178E-09   1.02185333168900E-09   3.75476093280281E-29   0.00000000000000E+00   0.00000000000000E+00
      0.00000000000000E+00   0.00000000000000E+00  -7.97537762253108E-12  -1.01387795418404E-09  -1.02185333180657E-09
     -3.77411537060076E-30
      2.22666666666667E-01
      3.34000000000000E+00   3.34000000000000E+00   0.00000000000000E+00   0.00000000000000E+00   4.05191135263589E-09
     -2.98425496803627E-09   1.06765638459963E-09   4.26765353444855E-29   0.00000000000000E+00   0.00000000000000E+00
      0.00000000000000E+00   0.00000000000000E+00  -8.14181162402008E-12  -1.05951457323489E-09  -1.06765638485891E-09
      4.43216625573115E-29
      2.32666666666667E-01
      3.49000000000000E+00   3.49000000000000E+00   0.00000000000000E+00   0.00000000000000E+00   4.09462883017521E-09
     -2.98106071754976E-09   1.11356811262544E-09   7.54823074120153E-30   0.00000000000000E+00   0.00000000000000E+00
      0.00000000000000E+00   0.00000000000000E+00  -8.31266694437198E-12  -1.10525544648893E-09  -1.11356811343331E-09
      2.90316566969289E-30
      2.42666666666667E-01
      3.64000000000000E+00   3.64000000000000E+00   0.00000000000000E+00   0.00000000000000E+00   4.13748308955216E-09
     -2.97787107317466E-09   1.15961201637750E-09  -3.96765974858029E-30   0.00000000000000E+00   0.00000000000000E+00
      0.00000000000000E+00   0.00000000000000E+00  -8.48875699909068E-12  -1.15112325930773E-09  -1.15961201630682E-09
      1.31610177026078E-29
      2.52666666666667E-01
      3.79000000000000E+00   3.79000000000000E+00   0.00000000000000E+00   0.00000000000000E+00   4.18049499721685E-09
     -2.97468449283705E-09   1.20581050437980E-09  -3.30960886344990E-29   0.00000000000000E+00   0.00000000000000E+00
      0.00000000000000E+00   0.00000000000000E+00  -8.67093657709524E-12  -1.19713956810692E-09  -1.20581050468402E-09
     -1.93544377979526E-29
      2.62666666666667E-01
      3.94000000000000E+00   3.94000000000000E+00   0.00000000000000E+00   0.00000000000000E+00   4.22368457219492E-09
     -2.97149952842879E-09   1.25218504376613E-09   4.35474850453934E-30   0.00000000000000E+00   0.00000000000000E+00
      0.00000000000000E+00   0.00000000000000E+00  -8.86010389586630E-12  -1.24332493982293E-09  -1.25218504371879E-09
     -1.54835502383621E-29
      2.72666666666667E-01
      4.09000000000000E+00   4.09000000000000E+00   0.00000000000000E+00   0.00000000000000E+00   4.26707109782728E-09
     -2.96831482206010E-09   1.29875627576718E-09   1.62577277502802E-29   0.00000000000000E+00   0.00000000000000E+00
      0.00000000000000E+00   0.00000000000000E+00  -9.05720222803773E-12  -1.28969907256802E-09  -1.29875627479605E-09
      9.87076327695584E-30
      2.82666666666667E-01
      4.24000000000000E+00   4.24000000000000E+00   0.00000000000000E+00   0.00000000000000E+00   4.31067321986803E-09
     -2.96512909804310E-09   1.34554412182494E-09  -6.48373666231413E-29   0.00000000000000E+00   0.00000000000000E+00
      0.00000000000000E+00   0.00000000000000E+00  -9.26322130414178E-12  -1.33628090121509E-09  -1.34554412251923E-09
     -1.18062070567511E-29
      2.92666666666667E-01
      4.39000000000000E+00   4.39000000000000E+00   0.00000000000000E+00   0.00000000000000E+00   4.35450903314894E-09
     -2.96194114381164E-09   1.39256788933730E-09   2.86445679409699E-29   0.00000000000000E+00   0.00000000000000E+00
      0.00000000000000E+00   0.00000000000000E+00  -9.47919860742385E-12  -1.38308869107530E-09  -1.39256788968272E-09
     -7.74177511918105E-31
      3.02666666666667E-01
      4.54000000000000E+00   4.54000000000000E+00   0.00000000000000E+00   0.00000000000000E+00   4.39859616004399E-09
     -2.95874981686819E-09   1.43984634317580E-09  -2.63220354052156E-29   0.00000000000000E+00   0.00000000000000E+00
      0.00000000000000E+00   0.00000000000000E+00  -9.70622061382604E-12  -1.43014012230297E-09  -1.43984634291680E-09
      3.09671004767242E-30
      3.12666666666667E-01
      4.69000000000000E+00   4.69000000000000E+00   0.00000000000000E+00   0.00000000000000E+00   4.44295182262854E-09
     -2.95555403106946E-09   1.48739779155908E-09   2.02253874988605E-29   0.00000000000000E+00   0.00000000000000E+00
      0.00000000000000E+00   0.00000000000000E+00  -9.94542398545400E-12  -1.47745236716004E-09  -1.48739779114549E-09
      3.87088755959053E-30
      3.22666666666667E-01
      4.84000000000000E+00   4.84000000000000E+00   0.00000000000000E+00   0.00000000000000E+00   4.48759290943256E-09
     -2.95235275157516E-09   1.53524015785741E-09   2.38059584914817E-29   0.00000000000000E+00   0.00000000000000E+00
      0.00000000000000E+00   0.00000000000000E+00  -1.01979966936628E-11  -1.52504216183672E-09  -1.53524015853038E-09
      1.04513964108944E-29
      3.32666666666667E-01
      4.99000000000000E+00   4.99000000000000E+00   0.00000000000000E+00   0.00000000000000E+00   4.53253603899432E-09
     -2.94914498555384E-09   1.58339105344048E-09   1.31610177026078E-29   0.00000000000000E+00   0.00000000000000E+00
      0.00000000000000E+00   0.00000000000000E+00  -1.04651790243646E-11  -1.57292587415874E-09  -1.58339105318311E-09
     -2.20640590896660E-29
      3.42666666666667E-01
      5.14000000000000E+00   5.14000000000000E+00   0.00000000000000E+00   0.00000000000000E+00   4.57779762023542E-09
     -2.94592978848652E-09   1.63186783174890E-09  -1.27739289466487E-29   0.00000000000000E+00   0.00000000000000E+00
      0.00000000000000E+00   0.00000000000000E+00  -1.07482644004841E-11  -1.62111956821041E-09  -1.63186783261089E-09
      1.76125383961369E-29
      3.52666666666667E-01
      5.29000000000000E+00   5.29000000000000E+00   0.00000000000000E+00   0.00000000000000E+00   4.62339391055579E-09
     -2.94270624466792E-09   1.68068766588787E-09   3.87088755959053E-30   0.00000000000000E+00   0.00000000000000E+00
      0.00000000000000E+00   0.00000000000000E+00  -1.10485999428197E-11  -1.66963906668019E-09  -1.68068766662301E-09
     -1.87738046640140E-29
      3.62666666666667E-01
      5.44000000000000E+00   5.44000000000000E+00   0.00000000000000E+00   0.00000000000000E+00   4.66934907408798E-09
     -2.93947306037827E-09   1.72987601370971E-09   5.59343252360831E-29   0.00000000000000E+00   0.00000000000000E+00
      0.00000000000000E+00   0.00000000000000E+00  -1.13675602770337E-11  -1.71850845145952E-09  -1.72987601173655E-09
      2.98058342088470E-29
      3.72666666666667E-01
      5.59000000000000E+00   5.59000000000000E+00   0.00000000000000E+00   0.00000000000000E+00   4.71565595388786E-09
     -2.93623059042744E-09   1.77942536346042E-09   1.88705768530038E-29   0.00000000000000E+00   0.00000000000000E+00
      0.00000000000000E+00   0.00000000000000E+00  -1.17066768776610E-11  -1.76771868770043E-09  -1.77942536457809E-09
      1.00643076549354E-29
      3.82666666666667E-01
      5.74000000000000E+00   5.74000000000000E+00   0.00000000000000E+00   0.00000000000000E+00   4.76227995069428E-09
     -2.93298056996223E-09   1.82929938073205E-09  -1.77093105851267E-29   0.00000000000000E+00   0.00000000000000E+00
      0.00000000000000E+00   0.00000000000000E+00  -1.20676321100038E-11  -1.81723174872866E-09  -1.82929938083866E-09
     -5.98052127956736E-29
      3.92666666666667E-01
      5.89000000000000E+00   5.89000000000000E+00   0.00000000000000E+00   0.00000000000000E+00   4.80925841139207E-09
     -2.92972107236178E-09   1.87953733903029E-09   3.63863430601509E-29   0.00000000000000E+00   0.00000000000000E+00
      0.00000000000000E+00   0.00000000000000E+00  -1.24519215072876E-11  -1.86708541769090E-09  -1.87953733919818E-09
      6.19342009534484E-30
      4.02666666666667E-01
      6.04000000000000E+00   6.04000000000000E+00   0.00000000000000E+00   0.00000000000000E+00   4.85663969848869E-09
     -2.92644965556857E-09   1.93019004292012E-09   1.00643076549354E-29   0.00000000000000E+00   0.00000000000000E+00
      0.00000000000000E+00   0.00000000000000E+00  -1.28610470071042E-11  -1.91732899675467E-09  -1.93019004376177E-09
     -1.95479821759322E-29
      4.12666666666667E-01
      6.19000000000000E+00   6.19000000000000E+00   0.00000000000000E+00   0.00000000000000E+00   4.90442661587481E-09
     -2.92316621750744E-09   1.98126039836737E-09  -5.03215382746768E-30   0.00000000000000E+00   0.00000000000000E+00
      0.00000000000000E+00   0.00000000000000E+00  -1.32967119919748E-11  -1.96796368590217E-09  -1.98126039789414E-09
     -1.37416508365464E-29
      4.22666666666667E-01
      6.34000000000000E+00   6.34000000000000E+00   0.00000000000000E+00   0.00000000000000E+00   4.95263334770901E-09
     -2.91987010224506E-09   2.03276324546395E-09  -4.03540028087312E-29   0.00000000000000E+00   0.00000000000000E+00
      0.00000000000000E+00   0.00000000000000E+00  -1.37606236090193E-11  -2.01900262195342E-09  -2.03276324556244E-09
     -6.77405322928342E-30
      4.32666666666667E-01
      6.49000000000000E+00   6.49000000000000E+00   0.00000000000000E+00   0.00000000000000E+00   5.00127428073728E-09
     -2.91656065573719E-09   2.08471362500009E-09   6.96759760726295E-30   0.00000000000000E+00   0.00000000000000E+00
      0.00000000000000E+00   0.00000000000000E+00  -1.42545254742708E-11  -2.07045909894492E-09  -2.08471362441919E-09
     -3.01929229648061E-29
      4.42666666666667E-01
      6.64000000000000E+00   6.64000000000000E+00   0.00000000000000E+00   0.00000000000000E+00   5.05036405073784E-09
     -2.91323723532491E-09   2.13712681541293E-09   4.25797631554958E-30   0.00000000000000E+00   0.00000000000000E+00
      0.00000000000000E+00   0.00000000000000E+00  -1.47801909215632E-11  -2.12234662400300E-09  -2.13712681492457E-09
      1.47093727264440E-29
      4.52666666666667E-01
      6.79000000000000E+00   6.79000000000000E+00   0.00000000000000E+00   0.00000000000000E+00   5.09991758731857E-09
     -2.90989919952611E-09   2.19001838779246E-09   1.52900058603826E-29   0.00000000000000E+00   0.00000000000000E+00
      0.00000000000000E+00   0.00000000000000E+00  -1.53394148467485E-11  -2.17467897281288E-09  -2.19001838765963E-09
     -1.43222839704849E-29
      4.62666666666667E-01
      6.94000000000000E+00   6.94000000000000E+00   0.00000000000000E+00   0.00000000000000E+00   5.14995015754081E-09
     -2.90654590666986E-09   2.24340425087095E-09  -4.92570441957894E-29   0.00000000000000E+00   0.00000000000000E+00
      0.00000000000000E+00   0.00000000000000E+00  -1.59340040394851E-11  -2.22747024502823E-09  -2.24340424906771E-09
      4.04507749977210E-29
      4.72666666666667E-01
      7.09000000000000E+00   7.09000000000000E+00   0.00000000000000E+00   0.00000000000000E+00   5.20047740789278E-09
     -2.90317672158015E-09   2.29730068631264E-09  -1.24836123796794E-29   0.00000000000000E+00   0.00000000000000E+00
      0.00000000000000E+00   0.00000000000000E+00  -1.65657659089173E-11  -2.28073491995662E-09  -2.29730068586553E-09
     -9.40625676980498E-29
      4.82666666666667E-01
      7.24000000000000E+00   7.24000000000000E+00   0.00000000000000E+00   0.00000000000000E+00   5.25151540588693E-09
     -2.89979099715296E-09   2.35172440873396E-09  -3.75476093280281E-29   0.00000000000000E+00   0.00000000000000E+00
      0.00000000000000E+00   0.00000000000000E+00  -1.72364955291667E-11  -2.33448791286314E-09  -2.35172440839230E-09
      6.69663547809161E-29
      4.92666666666667E-01
      7.39000000000001E+00   7.39000000000001E+00   0.00000000000000E+00   0.00000000000000E+00   5.30308068067500E-09
     -2.89638808776492E-09   2.40669259291008E-09   6.74502157258649E-29   0.00000000000000E+00   0.00000000000000E+00
      0.00000000000000E+00   0.00000000000000E+00  -1.79479609561545E-11  -2.38874463223344E-09  -2.40669259318959E-09
      3.67734318161100E-29
      5.02666666666667E-01
      7.54000000000000E+00   7.54000000000000E+00   0.00000000000000E+00   0.00000000000000E+00   5.35519026316249E-09
     -2.89296733865051E-09   2.46222292451198E-09  -7.45145855221176E-30   0.00000000000000E+00   0.00000000000000E+00
      0.00000000000000E+00   0.00000000000000E+00  -1.87018867997008E-11  -2.44352103834237E-09  -2.46222292514207E-09
      4.60635619591273E-29
      5.12666666666667E-01
      7.69000000000000E+00   7.69000000000000E+00   0.00000000000000E+00   0.00000000000000E+00   5.40786172672737E-09
     -2.88952808596255E-09   2.51833364076482E-09   2.07092484438093E-29   0.00000000000000E+00   0.00000000000000E+00
      0.00000000000000E+00   0.00000000000000E+00  -1.94999360747340E-11  -2.49883370348420E-09  -2.51833363955894E-09
      4.29668519114548E-29
      5.22666666666667E-01
      7.84000000000000E+00   7.84000000000000E+00   0.00000000000000E+00   0.00000000000000E+00   5.46111322777127E-09
     -2.88606966305742E-09   2.57504356471385E-09   3.84185590289360E-29   0.00000000000000E+00   0.00000000000000E+00
      0.00000000000000E+00   0.00000000000000E+00  -2.03436904032790E-11  -2.55469987423622E-09  -2.57504356463950E-09
     -1.93544377979526E-30
      5.32666666666667E-01
      7.99000000000000E+00   7.99000000000000E+00   0.00000000000000E+00   0.00000000000000E+00   5.51496354740126E-09
     -2.88259138132881E-09   2.63237216607245E-09   1.31610177026078E-29   0.00000000000000E+00   0.00000000000000E+00
      0.00000000000000E+00   0.00000000000000E+00  -2.12346286949498E-11  -2.61113753614995E-09  -2.63237216484490E-09
      6.58050885130389E-30
      5.42666666666667E-01
      8.14000000000000E+00   8.14000000000000E+00   0.00000000000000E+00   0.00000000000000E+00   5.56943213499551E-09
     -2.87909254806136E-09   2.69033958693415E-09  -7.83854730817081E-30   0.00000000000000E+00   0.00000000000000E+00
      0.00000000000000E+00   0.00000000000000E+00  -2.21741044978630E-11  -2.66816548129353E-09  -2.69033958579140E-09
      3.17412779886423E-29
      5.52666666666667E-01
      8.29000000000000E+00   8.29000000000000E+00   0.00000000000000E+00   0.00000000000000E+00   5.62453915337183E-09
     -2.87557245140084E-09   2.74896670197100E-09   8.33208547201861E-29   0.00000000000000E+00   0.00000000000000E+00
      0.00000000000000E+00   0.00000000000000E+00  -2.31633222836502E-11  -2.72580337910690E-09  -2.74896670139055E-09
     -1.19997514347306E-29
      5.62666666666667E-01
      8.44000000000000E+00   8.44000000000000E+00   0.00000000000000E+00   0.00000000000000E+00   5.68030552729532E-09
     -2.87203036328323E-09   2.80827516401209E-09  -3.23219111225809E-29   0.00000000000000E+00   0.00000000000000E+00
      0.00000000000000E+00   0.00000000000000E+00  -2.42033130081858E-11  -2.78407185107522E-09  -2.80827516408341E-09
      2.70962129171337E-30
      5.72666666666667E-01
      8.59000000000001E+00   8.59000000000001E+00   0.00000000000000E+00   0.00000000000000E+00   5.73675299615898E-09
     -2.86846553661508E-09   2.86828745954390E-09  -2.36124141135022E-29   0.00000000000000E+00   0.00000000000000E+00
      0.00000000000000E+00   0.00000000000000E+00  -2.52949093699006E-11  -2.84299254977755E-09  -2.86828745914745E-09
      1.23868401906897E-29
      5.82666666666667E-01
      8.74000000000001E+00   8.74000000000001E+00   0.00000000000000E+00   0.00000000000000E+00   5.79391200399694E-09
     -2.86487684675959E-09   2.92903515723735E-09   3.82250146509564E-29   0.00000000000000E+00   0.00000000000000E+00
      0.00000000000000E+00   0.00000000000000E+00  -2.64386974586135E-11  -2.90259645962624E-09  -2.92903515708486E-09
     -4.10314081316596E-29
      5.92666666666667E-01
      8.89000000000001E+00   8.89000000000001E+00   0.00000000000000E+00   0.00000000000000E+00   5.85181450193014E-09
     -2.86126312526801E-09   2.99055137666213E-09  -4.30636241004446E-29   0.00000000000000E+00   0.00000000000000E+00
      0.00000000000000E+00   0.00000000000000E+00  -2.76350155326456E-11  -2.96291636120007E-09  -2.99055137673272E-09
      7.74177511918105E-30
      6.02666666666667E-01
      9.04000000000000E+00   9.04000000000000E+00   0.00000000000000E+00   0.00000000000000E+00   5.91043593926206E-09
     -2.85762580477024E-09   3.05281013449181E-09  -1.76125383961369E-29   0.00000000000000E+00   0.00000000000000E+00
      0.00000000000000E+00   0.00000000000000E+00  -2.88841030836077E-11  -3.02392603158363E-09  -3.05281013466724E-09
     -6.89017985607114E-29
      6.12666666666667E-01
      9.19000000000000E+00   9.19000000000000E+00   0.00000000000000E+00   0.00000000000000E+00   5.96975554349644E-09
     -2.85396612137688E-09   3.11578942211956E-09   2.54510857043077E-29   0.00000000000000E+00   0.00000000000000E+00
      0.00000000000000E+00   0.00000000000000E+00  -3.01858953880959E-11  -3.08560352647761E-09  -3.11578942186570E-09
      2.78703904290518E-29
      6.22666666666667E-01
      9.34000000000001E+00   9.34000000000001E+00   0.00000000000000E+00   0.00000000000000E+00   6.02978428323024E-09
     -2.85028386214515E-09   3.17950042108510E-09   2.89348845079392E-29   0.00000000000000E+00   0.00000000000000E+00
      0.00000000000000E+00   0.00000000000000E+00  -3.15399329859914E-11  -3.14796048846675E-09  -3.17950042145274E-09
      3.21283667446014E-29
      6.32666666666667E-01
      9.49000000000001E+00   9.49000000000001E+00   0.00000000000000E+00   0.00000000000000E+00   6.09058006372292E-09
     -2.84657671589718E-09   3.24400334782575E-09   2.43865916254203E-29   0.00000000000000E+00   0.00000000000000E+00
      0.00000000000000E+00   0.00000000000000E+00  -3.29452988337600E-11  -3.21105804888530E-09  -3.24400334771906E-09
      1.81931715300755E-29
      6.42666666666667E-01
      9.64000000000001E+00   9.64000000000001E+00   0.00000000000000E+00   0.00000000000000E+00   6.15222886893621E-09
     -2.84284117771644E-09   3.30938769121977E-09   2.84510235629904E-29   0.00000000000000E+00   0.00000000000000E+00
      0.00000000000000E+00   0.00000000000000E+00  -3.44006701244259E-11  -3.27498702230662E-09  -3.30938769243105E-09
     -9.52238339659269E-29
      6.52666666666667E-01
      9.79000000000001E+00   9.79000000000001E+00   0.00000000000000E+00   0.00000000000000E+00   6.21473990632930E-09
     -2.83907721734347E-09   3.37566268898584E-09   2.23543756566353E-29   0.00000000000000E+00   0.00000000000000E+00
      0.00000000000000E+00   0.00000000000000E+00  -3.59046173768264E-11  -3.33975807178474E-09  -3.37566268916156E-09
      7.93531949716058E-29
      6.62666666666667E-01
      9.94000000000001E+00   9.94000000000001E+00   0.00000000000000E+00   0.00000000000000E+00   6.27813640923512E-09
     -2.83528419899697E-09   3.44285221023815E-09   3.31928608234888E-29   0.00000000000000E+00   0.00000000000000E+00
      0.00000000000000E+00   0.00000000000000E+00  -3.74553372502397E-11  -3.40539687280154E-09  -3.44285221005178E-09
      3.17412779886423E-29
      6.72666666666667E-01
      1.00900000000000E+01   1.00900000000000E+01   0.00000000000000E+00   0.00000000000000E+00   6.34244951394530E-09
     -2.83146115567369E-09   3.51098835827161E-09   2.63220354052156E-29   0.00000000000000E+00   0.00000000000000E+00
      0.00000000000000E+00   0.00000000000000E+00  -3.90506763414085E-11  -3.47193768180877E-09  -3.51098835815018E-09
     -2.47736803813794E-29
      6.82666666666667E-01