DF-ISE text

Info {
  version   = 1.0
  type      = xyplot
  datasets  = [
    "time"
    "ntype OuterVoltage" "ntype InnerVoltage" "ntype QuasiFermiPotential" "ntype DisplacementCurrent" "ntype eCurrent"
    "ntype hCurrent" "ntype TotalCurrent" "ntype Charge" "ptype OuterVoltage" "ptype InnerVoltage"
    "ptype QuasiFermiPotential" "ptype DisplacementCurrent" "ptype eCurrent" "ptype hCurrent" "ptype TotalCurrent"
    "ptype Charge" ]
  functions = [
    Time
    OuterVoltage InnerVoltage QuasiFermiPotential DisplacementCurrent eCurrent
    hCurrent TotalCurrent Charge OuterVoltage InnerVoltage
    QuasiFermiPotential DisplacementCurrent eCurrent hCurrent TotalCurrent
    Charge ]
}

Data {
      0.00000000000000E+00
      0.00000000000000E+00   0.00000000000000E+00   0.00000000000000E+00   0.00000000000000E+00   0.00000000000000E+00
      0.00000000000000E+00   0.00000000000000E+00   0.00000000000000E+00   0.00000000000000E+00   0.00000000000000E+00
      0.00000000000000E+00   0.00000000000000E+00   0.00000000000000E+00   0.00000000000000E+00   0.00000000000000E+00
      0.00000000000000E+00
      0.00000000000000E+00
      0.00000000000000E+00   0.00000000000000E+00   0.00000000000000E+00   0.00000000000000E+00   4.49070472964564E-10
      0.00000000000000E+00   4.49070472964564E-10   2.22286536980739E-24   0.00000000000000E+00   0.00000000000000E+00
      0.00000000000000E+00   0.00000000000000E+00   1.75109988400561E-10   0.00000000000000E+00   1.75109988400561E-10
      9.31891219810675E-25
      0.00000000000000E+00
      0.00000000000000E+00   0.00000000000000E+00   0.00000000000000E+00   0.00000000000000E+00  -5.88718045213046E-17
      0.00000000000000E+00  -5.88718045213046E-17  -5.89425823296485E-23   0.00000000000000E+00   0.00000000000000E+00
      0.00000000000000E+00   0.00000000000000E+00   2.31539451358908E-17   0.00000000000000E+00   2.31539451358908E-17
     -1.05282389362328E-24
      1.00000000000000E-02
      5.00000000000000E-01   5.00000000000000E-01   0.00000000000000E+00   0.00000000000000E+00   1.68050547783482E-01
      0.00000000000000E+00   1.68050547783482E-01   8.94331473127896E-16   0.00000000000000E+00   0.00000000000000E+00
      0.00000000000000E+00   0.00000000000000E+00  -1.68050547783483E-01   0.00000000000000E+00  -1.68050547783483E-01
     -8.94331525116128E-16
      2.00000000000000E-02
      1.00000000000000E+00   1.00000000000000E+00   0.00000000000000E+00   0.00000000000000E+00   3.36101092252065E-01
      0.00000000000000E+00   3.36101092252065E-01   1.78866297545415E-15   0.00000000000000E+00   0.00000000000000E+00
      0.00000000000000E+00   0.00000000000000E+00  -3.36101092252065E-01   0.00000000000000E+00  -3.36101092252065E-01
     -1.78866302207235E-15
      3.00000000000000E-02
      1.50000000000000E+00   1.50000000000000E+00   0.00000000000000E+00   0.00000000000000E+00   5.04151634972077E-01
      0.00000000000000E+00   5.04151634972077E-01   2.68299446336229E-15   0.00000000000000E+00   0.00000000000000E+00
      0.00000000000000E+00   0.00000000000000E+00  -5.04151634972077E-01   0.00000000000000E+00  -5.04151634972077E-01
     -2.68299450617155E-15
      4.00000000000000E-02
      2.00000000000000E+00   2.00000000000000E+00   0.00000000000000E+00   0.00000000000000E+00   6.72202177520639E-01
      0.00000000000000E+00   6.72202177520639E-01   3.57732594395576E-15   0.00000000000000E+00   0.00000000000000E+00
      0.00000000000000E+00   0.00000000000000E+00  -6.72202177520637E-01   0.00000000000000E+00  -6.72202177520637E-01
     -3.57732598939033E-15
      5.00000000000000E-02
      2.50000000000000E+00   2.50000000000000E+00   0.00000000000000E+00   0.00000000000000E+00   8.40252792365789E-01
      0.00000000000000E+00   8.40252792365789E-01   4.47165729340268E-15   0.00000000000000E+00   0.00000000000000E+00
      0.00000000000000E+00   0.00000000000000E+00  -8.40252792365789E-01   0.00000000000000E+00  -8.40252792365789E-01
     -4.47165786133926E-15
      6.00000000000000E-02
      3.00000000000000E+00   3.00000000000000E+00   0.00000000000000E+00   0.00000000000000E+00   1.00830520820576E+00
      0.00000000000000E+00   1.00830520820576E+00   5.36598555276089E-15   0.00000000000000E+00   0.00000000000000E+00
      0.00000000000000E+00   0.00000000000000E+00  -1.00830520820576E+00   0.00000000000000E+00  -1.00830520820576E+00
     -5.36599925910882E-15
      7.00000000000000E-02
      3.50000000000000E+00   3.50000000000000E+00   0.00000000000000E+00   0.00000000000000E+00   1.17637505794621E+00
      0.00000000000000E+00   1.17637505794621E+00   6.26028438079487E-15   0.00000000000000E+00   0.00000000000000E+00
      0.00000000000000E+00   0.00000000000000E+00  -1.17637505794621E+00   0.00000000000000E+00  -1.17637505794621E+00
     -6.26043195650538E-15
      8.00000000000000E-02
      4.00000000000000E+00   4.00000000000000E+00   0.00000000000000E+00   0.00000000000000E+00   1.34453724275553E+00
      0.00000000000000E+00   1.34453724275553E+00   7.15442871632593E-15   0.00000000000000E+00   0.00000000000000E+00
      0.00000000000000E+00   0.00000000000000E+00  -1.34453724275553E+00   0.00000000000000E+00  -1.34453724275553E+00
     -7.15534492146562E-15
      9.00000000000000E-02
      4.50000000000000E+00   4.50000000000000E+00   0.00000000000000E+00   0.00000000000000E+00   1.51302684650867E+00
      0.00000000000000E+00   1.51302684650867E+00   8.04802904585240E-15   0.00000000000000E+00   0.00000000000000E+00
      0.00000000000000E+00   0.00000000000000E+00  -1.51302684650867E+00   0.00000000000000E+00  -1.51302684650867E+00
     -8.05195219524204E-15
      1.00000000000000E-01
      5.00000000000000E+00   5.00000000000000E+00   0.00000000000000E+00   0.00000000000000E+00   1.68240014699697E+00
      0.00000000000000E+00   1.68240014699697E+00   8.94017724559751E-15   0.00000000000000E+00   0.00000000000000E+00
      0.00000000000000E+00   0.00000000000000E+00  -1.68240014699696E+00   0.00000000000000E+00  -1.68240014699696E+00
     -8.95311147084506E-15
      1.10000000000000E-01
      5.50000000000000E+00   5.50000000000000E+00   0.00000000000000E+00   0.00000000000000E+00   1.85375102749089E+00
      0.00000000000000E+00   1.85375102749089E+00   9.82914870837861E-15   0.00000000000000E+00   0.00000000000000E+00
      0.00000000000000E+00   0.00000000000000E+00  -1.85375102749089E+00   0.00000000000000E+00  -1.85375102749089E+00
     -9.86440486873609E-15
      1.20000000000000E-01
      6.00000000000000E+00   6.00000000000000E+00   0.00000000000000E+00   0.00000000000000E+00   2.02899915638607E+00
      0.00000000000000E+00   2.02899915638607E+00   1.07121298896673E-14   0.00000000000000E+00   0.00000000000000E+00
      0.00000000000000E+00   0.00000000000000E+00  -2.02899915638608E+00   0.00000000000000E+00  -2.02899915638608E+00
     -1.07955247379422E-14
      1.30000000000000E-01
      6.50000000000000E+00   6.50000000000000E+00   0.00000000000000E+00   0.00000000000000E+00   2.21131967337674E+00
      0.00000000000000E+00   2.21131967337674E+00   1.15850700458853E-14   0.00000000000000E+00   0.00000000000000E+00
      0.00000000000000E+00   0.00000000000000E+00  -2.21131967337674E+00   0.00000000000000E+00  -2.21131967337674E+00
     -1.17621905046741E-14
      1.40000000000000E-01
      7.00000000000000E+00   7.00000000000000E+00   0.00000000000000E+00   0.00000000000000E+00   2.40588857255913E+00
      0.00000000000000E+00   2.40588857255913E+00   1.24429430422478E-14   0.00000000000000E+00   0.00000000000000E+00
      0.00000000000000E+00   0.00000000000000E+00  -2.40588857255912E+00   0.00000000000000E+00  -2.40588857255912E+00
     -1.27889855240718E-14
      1.50000000000000E-01
      7.50000000000000E+00   7.50000000000000E+00   0.00000000000000E+00   0.00000000000000E+00   2.62164328845909E+00
      0.00000000000000E+00   2.62164328845909E+00   1.32821147599431E-14   0.00000000000000E+00   0.00000000000000E+00
      0.00000000000000E+00   0.00000000000000E+00  -2.62164328845910E+00   0.00000000000000E+00  -2.62164328845910E+00
     -1.39138596370340E-14
      1.55000000000000E-01
      7.75000000000000E+00   7.75000000000000E+00   0.00000000000000E+00   0.00000000000000E+00   2.74333715588286E+00
      0.00000000000000E+00   2.74333715588286E+00   1.36983819423977E-14   0.00000000000000E+00   0.00000000000000E+00
      0.00000000000000E+00   0.00000000000000E+00  -2.74333715588290E+00   0.00000000000000E+00  -2.74333715588290E+00
     -1.45316533645680E-14
      1.57333333333333E-01
      7.86666666666667E+00   7.86666666666667E+00   0.00000000000000E+00   0.00000000000000E+00   2.80684958675027E+00
      0.00000000000000E+00   2.80684958675027E+00   1.38984974562417E-14   0.00000000000000E+00   0.00000000000000E+00
      0.00000000000000E+00   0.00000000000000E+00  -2.80684958675051E+00   0.00000000000000E+00  -2.80684958675051E+00
     -1.48391227522538E-14
      1.58422222222222E-01
      7.92111111111111E+00   7.92111111111111E+00   0.00000000000000E+00   0.00000000000000E+00   2.84121947963513E+00
      0.00000000000000E+00   2.84121947963513E+00   1.40009631647290E-14   0.00000000000000E+00   0.00000000000000E+00
      0.00000000000000E+00   0.00000000000000E+00  -2.84121947964311E+00   0.00000000000000E+00  -2.84121947964311E+00
     -1.49907547282598E-14
      1.59438518518519E-01
      7.97192592592592E+00   7.97192592592592E+00   0.00000000000000E+00   0.00000000000000E+00   2.94998955085936E+00
      0.00000000000000E+00   2.94998955085936E+00   1.42726490838719E-14   0.00000000000000E+00   0.00000000000000E+00
      0.00000000000000E+00   0.00000000000000E+00  -2.94998955089627E+00   0.00000000000000E+00  -2.94998955089627E+00
     -1.51887658615701E-14
      1.59861975308642E-01
      7.99309876543210E+00   7.99309876543210E+00   0.00000000000000E+00   0.00000000000000E+00   2.97437565956368E+00
      0.00000000000000E+00   2.97437565956368E+00   1.43310770339682E-14   0.00000000000000E+00   0.00000000000000E+00
      0.00000000000000E+00   0.00000000000000E+00  -2.97437565956742E+00   0.00000000000000E+00  -2.97437565956742E+00
     -1.52534522448182E-14
      1.60624197530864E-01
      8.03120987654321E+00   8.03120987654321E+00   0.00000000000000E+00   0.00000000000000E+00   3.01598817656441E+00
      0.00000000000000E+00   3.01598817656441E+00   1.44280388579306E-14   0.00000000000000E+00   0.00000000000000E+00
      0.00000000000000E+00   0.00000000000000E+00  -3.01598817656666E+00   0.00000000000000E+00  -3.01598817656666E+00
     -1.53699822214224E-14
      1.62047012345679E-01
      8.10235061728395E+00   8.10235061728395E+00   0.00000000000000E+00   0.00000000000000E+00   3.09406303512318E+00
      0.00000000000000E+00   3.09406303512318E+00   1.45994937134884E-14   0.00000000000000E+00   0.00000000000000E+00
      0.00000000000000E+00   0.00000000000000E+00  -3.09406303513573E+00   0.00000000000000E+00  -3.09406303513573E+00
     -1.55936864816901E-14
      1.64702933333333E-01
      8.23514666666667E+00   8.23514666666667E+00   0.00000000000000E+00   0.00000000000000E+00   3.26028500944709E+00
      0.00000000000000E+00   3.26028500944709E+00   1.49193323646649E-14   0.00000000000000E+00   0.00000000000000E+00
      0.00000000000000E+00   0.00000000000000E+00  -3.26028500944710E+00   0.00000000000000E+00  -3.26028500944710E+00
     -1.60513060088981E-14
      1.69483591111111E-01
      8.47417955555555E+00   8.47417955555555E+00   0.00000000000000E+00   0.00000000000000E+00   3.93415485167625E+00
      0.00000000000000E+00   3.93415485167625E+00   1.57361111810303E-14   0.00000000000000E+00   0.00000000000000E+00
      0.00000000000000E+00   0.00000000000000E+00  -3.93415485171912E+00   0.00000000000000E+00  -3.93415485171912E+00
     -1.74399687943913E-14
}
