DF-ISE text

Info {
  version   = 1.0
  type      = xyplot
  datasets  = [
    "time"
    "ntype OuterVoltage" "ntype InnerVoltage" "ntype QuasiFermiPotential" "ntype DisplacementCurrent" "ntype eCurrent"
    "ntype hCurrent" "ntype TotalCurrent" "ntype Charge" "ptype OuterVoltage" "ptype InnerVoltage"
    "ptype QuasiFermiPotential" "ptype DisplacementCurrent" "ptype eCurrent" "ptype hCurrent" "ptype TotalCurrent"
    "ptype Charge" ]
  functions = [
    Time
    OuterVoltage InnerVoltage QuasiFermiPotential DisplacementCurrent eCurrent
    hCurrent TotalCurrent Charge OuterVoltage InnerVoltage
    QuasiFermiPotential DisplacementCurrent eCurrent hCurrent TotalCurrent
    Charge ]
}

Data {
      0.00000000000000E+00
      0.00000000000000E+00   0.00000000000000E+00   0.00000000000000E+00   0.00000000000000E+00   9.61315200000022E-09
     -9.61315200000024E-09  -1.51212767415695E-23   7.45145855221176E-30   0.00000000000000E+00   0.00000000000000E+00
      0.00000000000000E+00   0.00000000000000E+00   4.23194733475567E-29  -3.40495035647666E-24  -3.40490803700331E-24
      8.22563606412987E-31
      0.00000000000000E+00
      0.00000000000000E+00   0.00000000000000E+00   0.00000000000000E+00   0.00000000000000E+00   1.40004891403174E-08
     -7.39953288482071E-09   6.60095625549665E-09  -2.44833638144101E-29   0.00000000000000E+00   0.00000000000000E+00
      0.00000000000000E+00   0.00000000000000E+00   4.16985567717146E-11   4.81298438890172E-13   4.21798552106048E-11
      2.23785687038827E-31
      0.00000000000000E+00
      0.00000000000000E+00   0.00000000000000E+00   0.00000000000000E+00   0.00000000000000E+00   2.19799932363170E-09
     -2.20245245627474E-09  -4.45313264303970E-12  -1.69351330732085E-29   0.00000000000000E+00   0.00000000000000E+00
      0.00000000000000E+00   0.00000000000000E+00   1.16658976251776E-11  -7.21276496175663E-12   4.45313266342094E-12
      7.18231090158398E-33
      5.00000000000000E-03
      6.25000000000000E-02   6.25000000000000E-02   0.00000000000000E+00   0.00000000000000E+00   2.22016248490337E-09
     -2.20003679576989E-09   2.01256891334809E-11  -2.92252010749085E-29   0.00000000000000E+00   0.00000000000000E+00
      0.00000000000000E+00   0.00000000000000E+00   1.30420127286857E-12  -2.14298908331375E-11  -2.01256895602690E-11
      2.29833948850687E-31
      1.33333333333333E-02
      1.66666666666667E-01   1.66666666666667E-01   0.00000000000000E+00   0.00000000000000E+00   2.25475984535471E-09
     -2.19571274093447E-09   5.90471044202416E-11  -3.87088755959053E-31   0.00000000000000E+00   0.00000000000000E+00
      0.00000000000000E+00   0.00000000000000E+00  -2.59322965166988E-12  -5.64538747709156E-11  -5.90471044225854E-11
      1.93544377979526E-31
      2.33333333333333E-02
      2.91666666666667E-01   2.91666666666667E-01   0.00000000000000E+00   0.00000000000000E+00   2.29484885886033E-09
     -2.19056578153161E-09   1.04283077328716E-10   1.35481064585668E-29   0.00000000000000E+00   0.00000000000000E+00
      0.00000000000000E+00   0.00000000000000E+00  -3.59210525865750E-12  -1.00690971665224E-10  -1.04283076923882E-10
      2.56446300822872E-30
      3.33333333333333E-02
      4.16666666666667E-01   4.16666666666667E-01   0.00000000000000E+00   0.00000000000000E+00   2.33381239646844E-09
     -2.18557611980333E-09   1.48236276665114E-10   3.79346980839871E-29   0.00000000000000E+00   0.00000000000000E+00
      0.00000000000000E+00   0.00000000000000E+00  -4.17024942250944E-12  -1.44066026659432E-10  -1.48236276081941E-10
      1.45158283484645E-30
      4.33333333333333E-02
      5.41666666666667E-01   5.41666666666667E-01   0.00000000000000E+00   0.00000000000000E+00   2.37187810123775E-09
     -2.18072466440161E-09   1.91153436836136E-10   1.49029171044235E-29   0.00000000000000E+00   0.00000000000000E+00
      0.00000000000000E+00   0.00000000000000E+00  -4.58299311090326E-12  -1.86570443782844E-10  -1.91153436893748E-10
      6.72566713478854E-30
      5.33333333333333E-02
      6.66666666666667E-01   6.66666666666667E-01   0.00000000000000E+00   0.00000000000000E+00   2.40919341466782E-09
     -2.17599384351526E-09   2.33199571152558E-10  -1.38384230255361E-29   0.00000000000000E+00   0.00000000000000E+00
      0.00000000000000E+00   0.00000000000000E+00  -4.90183334678806E-12  -2.28297737382817E-10  -2.33199570729605E-10
     -1.45158283484645E-30
      6.33333333333333E-02
      7.91666666666667E-01   7.91666666666667E-01   0.00000000000000E+00   0.00000000000000E+00   2.44586352150051E-09
     -2.17136998484522E-09   2.74493536655287E-10  -2.61284910272360E-30   0.00000000000000E+00   0.00000000000000E+00
      0.00000000000000E+00   0.00000000000000E+00  -5.16228144421613E-12  -2.69331255843980E-10  -2.74493537288196E-10
      9.67721889897631E-32
      7.33333333333333E-02
      9.16666666666667E-01   9.16666666666667E-01   0.00000000000000E+00   0.00000000000000E+00   2.48197056512386E-09
     -2.16684185995691E-09   3.15128705166951E-10   9.58044670998655E-30   0.00000000000000E+00   0.00000000000000E+00
      0.00000000000000E+00   0.00000000000000E+00  -5.38425569637877E-12  -3.09744448521685E-10  -3.15128704218064E-10
      5.32247039443697E-31
      8.33333333333333E-02
      1.04166666666667E+00   1.04166666666667E+00   0.00000000000000E+00   0.00000000000000E+00   2.51758219803393E-09
     -2.16239995639547E-09   3.55182241638462E-10  -9.67721889897631E-30   0.00000000000000E+00   0.00000000000000E+00
      0.00000000000000E+00   0.00000000000000E+00  -5.57982810063428E-12  -3.49602414703702E-10  -3.55182242804336E-10
      4.83860944948816E-30
      9.33333333333333E-02
      1.16666666666667E+00   1.16666666666667E+00   0.00000000000000E+00   0.00000000000000E+00   2.55275596426459E-09
     -2.15803603347175E-09   3.94719930792842E-10   3.62895708711612E-29   0.00000000000000E+00   0.00000000000000E+00
      0.00000000000000E+00   0.00000000000000E+00  -5.75675730220306E-12  -3.88963174157719E-10  -3.94719931459922E-10
      1.21449097182153E-29
      1.03333333333333E-01
      1.29166666666667E+00   1.29166666666667E+00   0.00000000000000E+00   0.00000000000000E+00   2.58754182636673E-09
     -2.15374287789764E-09   4.33798948469086E-10  -2.63220354052156E-29   0.00000000000000E+00   0.00000000000000E+00
      0.00000000000000E+00   0.00000000000000E+00  -5.92026162181867E-12  -4.27878687043155E-10  -4.33798948664973E-10
     -3.04832395317754E-30
      1.13333333333333E-01
      1.41666666666667E+00   1.41666666666667E+00   0.00000000000000E+00   0.00000000000000E+00   2.62198376761481E-09
     -2.14951410933627E-09   4.72469658278543E-10  -3.99669140527722E-29   0.00000000000000E+00   0.00000000000000E+00
      0.00000000000000E+00   0.00000000000000E+00  -6.07397425360874E-12  -4.66395684139548E-10  -4.72469658393157E-10
     -5.32247039443697E-31
      1.23333333333333E-01
      1.54166666666667E+00   1.54166666666667E+00   0.00000000000000E+00   0.00000000000000E+00   2.65612088875716E-09
     -2.14534404814490E-09   5.10776840612254E-10   2.99993785868266E-30   0.00000000000000E+00   0.00000000000000E+00
      0.00000000000000E+00   0.00000000000000E+00  -6.22048881495364E-12  -5.04556352515660E-10  -5.10776841330614E-10
     -3.96765974858029E-30
      1.33333333333333E-01
      1.66666666666667E+00   1.66666666666667E+00   0.00000000000000E+00   0.00000000000000E+00   2.68998820578290E-09
     -2.14122760943722E-09   5.48760596345685E-10   2.74833016730927E-29   0.00000000000000E+00   0.00000000000000E+00
      0.00000000000000E+00   0.00000000000000E+00  -6.36168825258679E-12  -5.42398907887887E-10  -5.48760596140474E-10
     -5.51601477241650E-30
      1.43333333333333E-01
      1.79166666666667E+00   1.79166666666667E+00   0.00000000000000E+00   0.00000000000000E+00   2.72361725883504E-09
     -2.13716022876420E-09   5.86457030070831E-10  -1.93544377979526E-31   0.00000000000000E+00   0.00000000000000E+00
      0.00000000000000E+00   0.00000000000000E+00  -6.49895416082258E-12  -5.79958076647003E-10  -5.86457030807825E-10
     -6.38696447332437E-30
      1.53333333333333E-01
      1.91666666666667E+00   1.91666666666667E+00   0.00000000000000E+00   0.00000000000000E+00   2.75703659516551E-09
     -2.13313778371560E-09   6.23898811449909E-10  -8.12886387514010E-30   0.00000000000000E+00   0.00000000000000E+00
      0.00000000000000E+00   0.00000000000000E+00  -6.63330732553841E-12  -6.17265505627251E-10  -6.23898812952790E-10
     -1.40319674035157E-29
      1.63333333333333E-01
      2.04166666666667E+00   2.04166666666667E+00   0.00000000000000E+00   0.00000000000000E+00   2.79027216416144E-09
     -2.12915654335084E-09   6.61115620810599E-10   8.32240825311963E-30   0.00000000000000E+00   0.00000000000000E+00
      0.00000000000000E+00   0.00000000000000E+00  -6.76550682660199E-12  -6.54350114169322E-10  -6.61115620995924E-10
      5.51601477241650E-30
      1.73333333333333E-01
      2.16666666666667E+00   2.16666666666667E+00   0.00000000000000E+00   0.00000000000000E+00   2.82334764838460E-09
     -2.12521312473634E-09   6.98134523648267E-10   7.74177511918105E-31   0.00000000000000E+00   0.00000000000000E+00
      0.00000000000000E+00   0.00000000000000E+00  -6.89612275342039E-12  -6.91238399985827E-10  -6.98134522739247E-10
     -3.29025442565195E-30
      1.83333333333333E-01
      2.29166666666667E+00   2.29166666666667E+00   0.00000000000000E+00   0.00000000000000E+00   2.85628474619102E-09
     -2.12130444696331E-09   7.34980299227710E-10  -1.93544377979526E-30   0.00000000000000E+00   0.00000000000000E+00
      0.00000000000000E+00   0.00000000000000E+00  -7.02559107888005E-12  -7.27954707595239E-10  -7.34980298674119E-10
      7.64500293019129E-30
      1.93333333333333E-01
      2.41666666666667E+00   2.41666666666667E+00   0.00000000000000E+00   0.00000000000000E+00   2.88910341610904E-09
     -2.11742769513568E-09   7.71675720973366E-10   5.99987571736531E-30   0.00000000000000E+00   0.00000000000000E+00
      0.00000000000000E+00   0.00000000000000E+00  -7.15425576086586E-12  -7.64521465748764E-10  -7.71675721509630E-10
     -6.19342009534484E-30
      2.03333333333333E-01
      2.54166666666667E+00   2.54166666666667E+00   0.00000000000000E+00   0.00000000000000E+00   2.92182208992978E-09
     -2.11358029030969E-09   8.08241799620086E-10   7.45145855221176E-30   0.00000000000000E+00   0.00000000000000E+00
      0.00000000000000E+00   0.00000000000000E+00  -7.28240126611120E-12  -8.00959398439380E-10  -8.08241799705491E-10
     -9.09658576503773E-30
      2.13333333333333E-01
      2.66666666666667E+00   2.66666666666667E+00   0.00000000000000E+00   0.00000000000000E+00   2.95445785928113E-09
     -2.10975986939313E-09   8.44697989887994E-10  -4.45152069352910E-30   0.00000000000000E+00   0.00000000000000E+00
      0.00000000000000E+00   0.00000000000000E+00  -7.41027767817510E-12  -8.37287712783550E-10  -8.44697990461725E-10
     -5.80633133938579E-31
      2.23333333333333E-01
      2.79166666666667E+00   2.79166666666667E+00   0.00000000000000E+00   0.00000000000000E+00   2.98702664684380E-09
     -2.10596425505094E-09   8.81062391792861E-10   8.22563606412987E-30   0.00000000000000E+00   0.00000000000000E+00
      0.00000000000000E+00   0.00000000000000E+00  -7.53792782806618E-12  -8.73524464739704E-10  -8.81062392567770E-10
      5.32247039443697E-30
      2.33333333333333E-01
      2.91666666666667E+00   2.91666666666667E+00   0.00000000000000E+00   0.00000000000000E+00   3.01954325579366E-09
     -2.10219144006510E-09   9.17351815728558E-10   1.13223461118023E-29   0.00000000000000E+00   0.00000000000000E+00
      0.00000000000000E+00   0.00000000000000E+00  -7.66794416358118E-12  -9.09683871949344E-10  -9.17351816112925E-10
      3.38702661464171E-30
      2.43333333333333E-01
      3.04166666666667E+00   3.04166666666667E+00   0.00000000000000E+00   0.00000000000000E+00   3.05202166039425E-09
     -2.09843956261157E-09   9.53582097782686E-10   8.90304138705821E-30   0.00000000000000E+00   0.00000000000000E+00
      0.00000000000000E+00   0.00000000000000E+00  -7.80017462561605E-12  -9.45781923154693E-10  -9.53582097780309E-10
     -1.93544377979526E-30
      2.53333333333333E-01
      3.16666666666667E+00   3.16666666666667E+00   0.00000000000000E+00   0.00000000000000E+00   3.08447504987764E-09
     -2.09470689446305E-09   9.89768155414594E-10  -8.22563606412987E-30   0.00000000000000E+00   0.00000000000000E+00
      0.00000000000000E+00   0.00000000000000E+00  -7.93410475199563E-12  -9.81834050136790E-10  -9.89768154888786E-10
     -4.74183726049839E-30
      2.63333333333333E-01
      3.29166666666667E+00   3.29166666666667E+00   0.00000000000000E+00   0.00000000000000E+00   3.11691587259840E-09
     -2.09099183165041E-09   1.02592404094799E-09  -3.87088755959053E-30   0.00000000000000E+00   0.00000000000000E+00
      0.00000000000000E+00   0.00000000000000E+00  -8.07029549369740E-12  -1.01785374527727E-09  -1.02592404077096E-09
      3.96765974858029E-30
      2.73333333333333E-01
      3.41666666666667E+00   3.41666666666667E+00   0.00000000000000E+00   0.00000000000000E+00   3.14935595686034E-09
     -2.08729287724680E-09   1.06206307961354E-09   7.74177511918105E-31   0.00000000000000E+00   0.00000000000000E+00
      0.00000000000000E+00   0.00000000000000E+00  -8.20916660257498E-12  -1.05385391378810E-09  -1.06206308039067E-09
      1.78060827741164E-29
      2.83333333333333E-01
      3.54166666666667E+00   3.54166666666667E+00   0.00000000000000E+00   0.00000000000000E+00   3.18180657761512E-09
     -2.08360862947761E-09   1.09819794813751E-09  -3.59024821152021E-29   0.00000000000000E+00   0.00000000000000E+00
      0.00000000000000E+00   0.00000000000000E+00  -8.35115473513181E-12  -1.08984679212668E-09  -1.09819794686181E-09
     -1.02578520329149E-29
      2.93333333333333E-01
      3.66666666666667E+00   3.66666666666667E+00   0.00000000000000E+00   0.00000000000000E+00   3.21427851846836E-09
     -2.07993778597693E-09   1.13434073249143E-09  -2.90316566969289E-30   0.00000000000000E+00   0.00000000000000E+00
      0.00000000000000E+00   0.00000000000000E+00  -8.49671476700277E-12  -1.12584401820240E-09  -1.13434073296940E-09
      1.39351952145259E-29
      3.03333333333333E-01
      3.79166666666667E+00   3.79166666666667E+00   0.00000000000000E+00   0.00000000000000E+00   3.24678212641755E-09
     -2.07627911359802E-09   1.17050301281953E-09  -1.89673490419936E-29   0.00000000000000E+00   0.00000000000000E+00
      0.00000000000000E+00   0.00000000000000E+00  -8.64632076275680E-12  -1.16185669310977E-09  -1.17050301387253E-09
     -2.09027928217888E-29
      3.13333333333333E-01
      3.91666666666667E+00   3.91666666666667E+00   0.00000000000000E+00   0.00000000000000E+00   3.27932735983021E-09
     -2.07263145689395E-09   1.20669590293625E-09   1.54835502383621E-30   0.00000000000000E+00   0.00000000000000E+00
      0.00000000000000E+00   0.00000000000000E+00  -8.80046672236075E-12  -1.19789543567808E-09  -1.20669590240044E-09
     -6.77405322928342E-30
      3.23333333333333E-01
      4.04166666666667E+00   4.04166666666667E+00   0.00000000000000E+00   0.00000000000000E+00   3.31192383121570E-09
     -2.06899373255626E-09   1.24293009865944E-09   8.70949700907868E-31   0.00000000000000E+00   0.00000000000000E+00
      0.00000000000000E+00   0.00000000000000E+00  -8.95966718925958E-12  -1.23397043099340E-09  -1.24293009818266E-09
      4.83860944948816E-30
      3.33333333333333E-01
      4.16666666666667E+00   4.16666666666667E+00   0.00000000000000E+00   0.00000000000000E+00   3.34458084532651E-09
     -2.06536491333251E-09   1.27921593199400E-09   1.99350709318912E-29   0.00000000000000E+00   0.00000000000000E+00
      0.00000000000000E+00   0.00000000000000E+00  -9.12445777766960E-12  -1.27009147391096E-09  -1.27921593168863E-09
      2.05157040658298E-29
      3.43333333333333E-01
      4.29166666666667E+00   4.29166666666667E+00   0.00000000000000E+00   0.00000000000000E+00   3.37730743390687E-09
     -2.06174402902482E-09   1.31556340488205E-09  -3.31928608234888E-29   0.00000000000000E+00   0.00000000000000E+00
      0.00000000000000E+00   0.00000000000000E+00  -9.29539565611619E-12  -1.30626800843875E-09  -1.31556340409487E-09
      1.31610177026078E-29
      3.53333333333333E-01
      4.41666666666667E+00   4.41666666666667E+00   0.00000000000000E+00   0.00000000000000E+00   3.41011238737131E-09
     -2.05813016462632E-09   1.35198222274499E-09   1.39351952145259E-29   0.00000000000000E+00   0.00000000000000E+00
      0.00000000000000E+00   0.00000000000000E+00  -9.47306000878024E-12  -1.34250916374381E-09  -1.35198222375259E-09
     -6.23212897094075E-29
      3.63333333333334E-01
      4.54166666666667E+00   4.54166666666667E+00   0.00000000000000E+00   0.00000000000000E+00   3.44300428421432E-09
     -2.05452244354709E-09   1.38848184066723E-09  -2.13866537667377E-29   0.00000000000000E+00   0.00000000000000E+00
      0.00000000000000E+00   0.00000000000000E+00  -9.65805248456781E-12  -1.37882378741234E-09  -1.38848183989691E-09
     -2.32253253575432E-29
      3.73333333333334E-01
      4.66666666666667E+00   4.66666666666667E+00   0.00000000000000E+00   0.00000000000000E+00   3.47599151847935E-09
     -2.05092004416444E-09   1.42507147431491E-09   3.30960886344990E-29   0.00000000000000E+00   0.00000000000000E+00
      0.00000000000000E+00   0.00000000000000E+00  -9.85099763500572E-12  -1.41522047648798E-09  -1.42507147412299E-09
      5.03215382746768E-30
      3.83333333333334E-01
      4.79166666666667E+00   4.79166666666667E+00   0.00000000000000E+00   0.00000000000000E+00   3.50908232588025E-09
     -2.04732217602233E-09   1.46176014985792E-09  -8.61272482008892E-30   0.00000000000000E+00   0.00000000000000E+00
      0.00000000000000E+00   0.00000000000000E+00  -1.00525433353525E-11  -1.45170760671842E-09  -1.46176015005377E-09
     -2.55478578932975E-29
      3.93333333333334E-01
      4.91666666666667E+00   4.91666666666667E+00   0.00000000000000E+00   0.00000000000000E+00   3.54228480842303E-09
     -2.04372808675614E-09   1.49855672166689E-09  -2.90316566969289E-31   0.00000000000000E+00   0.00000000000000E+00
      0.00000000000000E+00   0.00000000000000E+00  -1.02633611781408E-11  -1.48829336036178E-09  -1.49855672153992E-09
      2.55478578932975E-29
      4.03333333333334E-01
      5.04166666666667E+00   5.04166666666667E+00   0.00000000000000E+00   0.00000000000000E+00   3.57560695846347E-09
     -2.04013705899296E-09   1.53546989947051E-09  -7.54823074120153E-30   0.00000000000000E+00   0.00000000000000E+00
      0.00000000000000E+00   0.00000000000000E+00  -1.04841468243105E-11  -1.52498575283831E-09  -1.53546989966262E-09
     -1.45158283484645E-29
      4.13333333333334E-01
      5.16666666666667E+00   5.16666666666667E+00   0.00000000000000E+00   0.00000000000000E+00   3.60905668161850E-09
     -2.03654840469125E-09   1.57250827692725E-09   5.51601477241650E-30   0.00000000000000E+00   0.00000000000000E+00
      0.00000000000000E+00   0.00000000000000E+00  -1.07156202938446E-11  -1.56179265846028E-09  -1.57250827875413E-09
      2.39995028694613E-29
      4.23333333333334E-01
      5.29166666666667E+00   5.29166666666667E+00   0.00000000000000E+00   0.00000000000000E+00   3.64264577327379E-09
     -2.03296121306465E-09   1.60968456020914E-09   1.04513964108944E-29   0.00000000000000E+00   0.00000000000000E+00
      0.00000000000000E+00   0.00000000000000E+00  -1.09585129906208E-11  -1.59872604745152E-09  -1.60968456044214E-09
      1.93544377979526E-29
      4.33333333333334E-01
      5.41666666666667E+00   5.41666666666667E+00   0.00000000000000E+00   0.00000000000000E+00   3.67637911936106E-09
     -2.02937503483972E-09   1.64700408452134E-09   1.17094348677613E-29   0.00000000000000E+00   0.00000000000000E+00
      0.00000000000000E+00   0.00000000000000E+00  -1.12136034724441E-11  -1.63579048062724E-09  -1.64700408409968E-09
     -1.74189940181574E-30
      4.43333333333334E-01
      5.54166666666667E+00   5.54166666666667E+00   0.00000000000000E+00   0.00000000000000E+00   3.71023063957628E-09
     -2.02579133330636E-09   1.68443930626992E-09   3.77411537060076E-30   0.00000000000000E+00   0.00000000000000E+00
      0.00000000000000E+00   0.00000000000000E+00  -1.14818015680035E-11  -1.67295750460583E-09  -1.68443930617383E-09
      9.67721889897631E-31
      4.53333333333334E-01
      5.66666666666667E+00   5.66666666666667E+00   0.00000000000000E+00   0.00000000000000E+00   3.74419543671949E-09
     -2.02221025657905E-09   1.72198518014043E-09  -5.12892601645745E-30   0.00000000000000E+00   0.00000000000000E+00
      0.00000000000000E+00   0.00000000000000E+00  -1.17639742105829E-11  -1.71022120551215E-09  -1.72198517972273E-09
      8.70949700907868E-30
      4.63333333333334E-01
      5.79166666666667E+00   5.79166666666667E+00   0.00000000000000E+00   0.00000000000000E+00   3.77830897340471E-09
     -2.01862950826432E-09   1.75967946514039E-09  -3.73540649500486E-29   0.00000000000000E+00   0.00000000000000E+00
      0.00000000000000E+00   0.00000000000000E+00  -1.20608726237365E-11  -1.74761859159288E-09  -1.75967946421661E-09
      3.30960886344990E-29
      4.73333333333334E-01
      5.91666666666667E+00   5.91666666666667E+00   0.00000000000000E+00   0.00000000000000E+00   3.81258784750037E-09
     -2.01504798492002E-09   1.79753986258035E-09   3.86121034069155E-29   0.00000000000000E+00   0.00000000000000E+00
      0.00000000000000E+00   0.00000000000000E+00  -1.23733337336131E-11  -1.78516652898303E-09  -1.79753986271665E-09
     -1.79996271520959E-29
      4.83333333333334E-01
      6.04166666666667E+00   6.04166666666667E+00   0.00000000000000E+00   0.00000000000000E+00   3.84703208572988E-09
     -2.01146560280169E-09   1.83556648292819E-09   5.12892601645745E-30   0.00000000000000E+00   0.00000000000000E+00
      0.00000000000000E+00   0.00000000000000E+00  -1.27022754444570E-11  -1.82286420689443E-09  -1.83556648233889E-09
      1.93544377979526E-29
      4.93333333333334E-01
      6.16666666666667E+00   6.16666666666667E+00   0.00000000000000E+00   0.00000000000000E+00   3.88164832187823E-09
     -2.00788189733807E-09   1.87376642454016E-09   4.54829288251887E-30   0.00000000000000E+00   0.00000000000000E+00
      0.00000000000000E+00   0.00000000000000E+00  -1.30486146259125E-11  -1.86071781032117E-09  -1.87376642494708E-09
      3.65798874381305E-29
      5.03333333333334E-01
      6.29166666666667E+00   6.29166666666667E+00   0.00000000000000E+00   0.00000000000000E+00   3.91644326396454E-09
     -2.00429640799944E-09   1.91214685596511E-09   3.87088755959053E-29   0.00000000000000E+00   0.00000000000000E+00
      0.00000000000000E+00   0.00000000000000E+00  -1.34132884336848E-11  -1.89873356756740E-09  -1.91214685600108E-09
     -1.47093727264440E-29
      5.13333333333334E-01
      6.41666666666667E+00   6.41666666666667E+00   0.00000000000000E+00   0.00000000000000E+00   3.95142371285321E-09
     -2.00070868779760E-09   1.95071502505562E-09  -1.00643076549354E-29   0.00000000000000E+00   0.00000000000000E+00
      0.00000000000000E+00   0.00000000000000E+00  -1.37972525303428E-11  -1.93691777239166E-09  -1.95071502492200E-09
     -3.21283667446014E-29
      5.23333333333334E-01
      6.54166666666667E+00   6.54166666666667E+00   0.00000000000000E+00   0.00000000000000E+00   3.98659658037196E-09
     -1.99711829523733E-09   1.98947828513462E-09   1.64512721282597E-29   0.00000000000000E+00   0.00000000000000E+00
      0.00000000000000E+00   0.00000000000000E+00  -1.42014789342052E-11  -1.97527680585149E-09  -1.98947828478570E-09
     -5.26440708104311E-29
      5.33333333333334E-01
      6.66666666666667E+00   6.66666666666667E+00   0.00000000000000E+00   0.00000000000000E+00   4.02196890711100E-09
     -1.99352479595608E-09   2.02844411115492E-09   3.87088755959053E-30   0.00000000000000E+00   0.00000000000000E+00
      0.00000000000000E+00   0.00000000000000E+00  -1.46269534650269E-11  -2.01381715794626E-09  -2.02844411141129E-09
     -3.09671004767242E-30
      5.43333333333334E-01
      6.79166666666667E+00   6.79166666666667E+00   0.00000000000000E+00   0.00000000000000E+00   4.05754787945190E-09
     -1.98992775705546E-09   2.06762012239644E-09  -2.17737425226967E-29   0.00000000000000E+00   0.00000000000000E+00
      0.00000000000000E+00   0.00000000000000E+00  -1.50746727564220E-11  -2.05254544915372E-09  -2.06762012191014E-09
      3.87088755959053E-30
      5.53333333333334E-01
      6.91666666666667E+00   6.91666666666667E+00   0.00000000000000E+00   0.00000000000000E+00   4.09334030113405E-09
     -1.98632621157144E-09   2.10701408956261E-09  -1.51932336713928E-29   0.00000000000000E+00   0.00000000000000E+00
      0.00000000000000E+00   0.00000000000000E+00  -1.55456396026395E-11  -2.09146845001848E-09  -2.10701408962112E-09
      3.29025442565195E-29
      5.63333333333334E-01
      7.04166666666667E+00   7.04166666666667E+00   0.00000000000000E+00   0.00000000000000E+00   4.12935478051490E-09
     -1.98272080664910E-09   2.14663397386579E-09   8.70949700907868E-31   0.00000000000000E+00   0.00000000000000E+00
      0.00000000000000E+00   0.00000000000000E+00  -1.60408635402269E-11  -2.13059311051784E-09  -2.14663397405807E-09
      4.95473607627587E-29
      5.73333333333334E-01
      7.16666666666667E+00   7.16666666666667E+00   0.00000000000000E+00   0.00000000000000E+00   4.16559851081520E-09
     -1.97911059006008E-09   2.18648792075512E-09   1.91608934199731E-29   0.00000000000000E+00   0.00000000000000E+00
      0.00000000000000E+00   0.00000000000000E+00  -1.65613499834317E-11  -2.16992657015088E-09  -2.18648792013431E-09
     -2.55478578932975E-29
      5.83333333333334E-01
      7.29166666666667E+00   7.29166666666667E+00   0.00000000000000E+00   0.00000000000000E+00   4.20207942117579E-09
     -1.97549513309734E-09   2.22658428807845E-09   1.93544377979526E-29   0.00000000000000E+00   0.00000000000000E+00
      0.00000000000000E+00   0.00000000000000E+00  -1.71080993329215E-11  -2.20947618780752E-09  -2.22658428714044E-09
     -1.04513964108944E-29
      5.93333333333334E-01
      7.41666666666667E+00   7.41666666666667E+00   0.00000000000000E+00   0.00000000000000E+00   4.23880567488980E-09
     -1.97187401199667E-09   2.26693166289313E-09   8.03209168615034E-30   0.00000000000000E+00   0.00000000000000E+00
      0.00000000000000E+00   0.00000000000000E+00  -1.76821004870816E-11  -2.24924956216762E-09  -2.26693166265470E-09
     -3.94830531078234E-29
      6.03333333333334E-01
      7.54166666666667E+00   7.54166666666667E+00   0.00000000000000E+00   0.00000000000000E+00   4.27578567709081E-09
     -1.96824679760460E-09   2.30753887948621E-09  -1.57738668053314E-29   0.00000000000000E+00   0.00000000000000E+00
      0.00000000000000E+00   0.00000000000000E+00  -1.82843247921257E-11  -2.28925455453559E-09  -2.30753887932772E-09
      5.41924258342674E-29
      6.13333333333334E-01
      7.66666666666667E+00   7.66666666666667E+00   0.00000000000000E+00   0.00000000000000E+00   4.31302809156224E-09
     -1.96461305906933E-09   2.34841503249290E-09  -2.51607691373384E-30   0.00000000000000E+00   0.00000000000000E+00
      0.00000000000000E+00   0.00000000000000E+00  -1.89157194512532E-11  -2.32949931219338E-09  -2.34841503164463E-09
      1.16126626787716E-29
      6.23333333333334E-01
      7.79166666666667E+00   7.79166666666667E+00   0.00000000000000E+00   0.00000000000000E+00   4.35054185878931E-09
     -1.96097236566363E-09   2.38956949312568E-09   3.78379258949974E-29   0.00000000000000E+00   0.00000000000000E+00
      0.00000000000000E+00   0.00000000000000E+00  -1.95772004082114E-11  -2.36999229238352E-09  -2.38956949279174E-09
      4.41281181793320E-29
      6.33333333333334E-01
      7.91666666666667E+00   7.91666666666667E+00   0.00000000000000E+00   0.00000000000000E+00   4.38833620724869E-09
     -1.95732427448023E-09   2.43101193276847E-09   5.51601477241650E-30   0.00000000000000E+00   0.00000000000000E+00
      0.00000000000000E+00   0.00000000000000E+00  -2.02696447286893E-11  -2.41074228700715E-09  -2.43101193173584E-09
     -1.78060827741164E-29
      6.43333333333334E-01
      8.04166666666667E+00   8.04166666666667E+00   0.00000000000000E+00   0.00000000000000E+00   4.42642067280032E-09
     -1.95366834229676E-09   2.47275233050356E-09  -3.19348223666218E-29   0.00000000000000E+00   0.00000000000000E+00
      0.00000000000000E+00   0.00000000000000E+00  -2.09938825161671E-11  -2.45175844816234E-09  -2.47275233067851E-09
     -4.64506507150863E-29
      6.53333333333334E-01
      8.16666666666667E+00   8.16666666666667E+00   0.00000000000000E+00   0.00000000000000E+00   4.46480511701488E-09
     -1.95000411430916E-09   2.51480100270572E-09  -3.92895087298438E-29   0.00000000000000E+00   0.00000000000000E+00
      0.00000000000000E+00   0.00000000000000E+00  -2.17506884121565E-11  -2.49305031462535E-09  -2.51480100303751E-09
      8.12886387514010E-30
      6.63333333333334E-01
      8.29166666666667E+00   8.29166666666667E+00   0.00000000000000E+00   0.00000000000000E+00   4.50349974436640E-09
     -1.94633113235665E-09   2.55716861200975E-09   7.93531949716058E-30   0.00000000000000E+00   0.00000000000000E+00
      0.00000000000000E+00   0.00000000000000E+00  -2.25407727458959E-11  -2.53462783939119E-09  -2.55716861213709E-09
     -1.74189940181574E-29
      6.73333333333334E-01
      8.41666666666667E+00   8.41666666666667E+00   0.00000000000000E+00   0.00000000000000E+00   4.54252493439011E-09
     -1.94264905175174E-09   2.59987588263836E-09   4.39345738013525E-29   0.00000000000000E+00   0.00000000000000E+00
      0.00000000000000E+00   0.00000000000000E+00  -2.33647636610783E-11  -2.57651111867626E-09  -2.59987588233734E-09
      1.93544377979526E-29
      6.83333333333334E-01