DF-ISE text

Info {
  version   = 1.0
  type      = xyplot
  datasets  = [
    "time"
    "ntype OuterVoltage" "ntype InnerVoltage" "ntype QuasiFermiPotential" "ntype DisplacementCurrent" "ntype eCurrent"
    "ntype hCurrent" "ntype TotalCurrent" "ntype Charge" "ptype OuterVoltage" "ptype InnerVoltage"
    "ptype QuasiFermiPotential" "ptype DisplacementCurrent" "ptype eCurrent" "ptype hCurrent" "ptype TotalCurrent"
    "ptype Charge" ]
  functions = [
    Time
    OuterVoltage InnerVoltage QuasiFermiPotential DisplacementCurrent eCurrent
    hCurrent TotalCurrent Charge OuterVoltage InnerVoltage
    QuasiFermiPotential DisplacementCurrent eCurrent hCurrent TotalCurrent
    Charge ]
}

Data {
      0.00000000000000E+00
      0.00000000000000E+00   0.00000000000000E+00   0.00000000000000E+00   0.00000000000000E+00  -1.43518077882485E-24
      1.43518078830440E-24   9.47955417334439E-33  -1.23384540961948E-30   0.00000000000000E+00   0.00000000000000E+00
      0.00000000000000E+00   0.00000000000000E+00   4.23194733475567E-29  -3.40495035647666E-24  -3.40490803700331E-24
      8.22563606412987E-31
      0.00000000000000E+00
      0.00000000000000E+00   0.00000000000000E+00   0.00000000000000E+00   0.00000000000000E+00  -2.62577285165353E-21
     -3.08458487618066E-22  -2.93423133927160E-21   2.51607691373384E-30   0.00000000000000E+00   0.00000000000000E+00
      0.00000000000000E+00   0.00000000000000E+00  -8.27736600305400E-24  -3.45463643059132E-24  -1.17320024336453E-23
      6.77405322928342E-31
      0.00000000000000E+00
      0.00000000000000E+00   0.00000000000000E+00   0.00000000000000E+00   0.00000000000000E+00  -1.00692093495358E-24
      2.23146517382858E-19   2.23145510461923E-19   2.70962129171337E-30   0.00000000000000E+00   0.00000000000000E+00
      0.00000000000000E+00   0.00000000000000E+00   3.03469356450306E-28  -7.78024960251520E-27  -7.47678024606490E-27
      2.84268305157429E-31
      1.00000000000000E-02
      2.00000000000000E-02   2.00000000000000E-02   0.00000000000000E+00   0.00000000000000E+00   8.05829753792804E-15
      1.59642344007269E-13   1.67700641545197E-13   3.26606137840451E-31   0.00000000000000E+00   0.00000000000000E+00
      0.00000000000000E+00   0.00000000000000E+00  -1.35026368787025E-14  -1.54197098440847E-13  -1.67699735319550E-13
     -2.23785687038827E-31
      2.00000000000000E-02
      4.00000000000000E-02   4.00000000000000E-02   0.00000000000000E+00   0.00000000000000E+00   2.23412115408142E-14
      4.36845866999557E-13   4.59187078540371E-13   1.53625850021249E-30   0.00000000000000E+00   0.00000000000000E+00
      0.00000000000000E+00   0.00000000000000E+00  -3.66745298053761E-14  -4.22516560842042E-13  -4.59191090647418E-13
     -5.86681395750439E-31
      3.00000000000000E-02
      6.00000000000000E-02   6.00000000000000E-02   0.00000000000000E+00   0.00000000000000E+00   4.72401300248610E-14
      9.14800484682554E-13   9.62040614707415E-13   3.89508060683797E-30   0.00000000000000E+00   0.00000000000000E+00
      0.00000000000000E+00   0.00000000000000E+00  -7.62020754923479E-14  -8.85839397180173E-13  -9.62041472672521E-13
     -7.86274035541826E-32
      4.00000000000000E-02
      8.00000000000000E-02   8.00000000000000E-02   0.00000000000000E+00   0.00000000000000E+00   8.90781613783100E-14
      1.71789190217203E-12   1.80697006355034E-12   2.70962129171337E-30   0.00000000000000E+00   0.00000000000000E+00
      0.00000000000000E+00   0.00000000000000E+00  -1.41664054778888E-13  -1.66530630555724E-12  -1.80697036033613E-12
      5.80633133938579E-31
      5.00000000000000E-02
      1.00000000000000E-01   1.00000000000000E-01   0.00000000000000E+00   0.00000000000000E+00   1.55574035909943E-13
      3.01296493311879E-12   3.16853896902874E-12   2.14108468139851E-30   0.00000000000000E+00   0.00000000000000E+00
      0.00000000000000E+00   0.00000000000000E+00  -2.44673318241500E-13  -2.92386584036011E-12  -3.16853915860161E-12
     -3.31142334199346E-31
      6.00000000000000E-02
      1.20000000000000E-01   1.20000000000000E-01   0.00000000000000E+00   0.00000000000000E+00   2.53811564291884E-13
      4.99186707769638E-12   5.24567864198826E-12  -1.02820450801623E-30   0.00000000000000E+00   0.00000000000000E+00
      0.00000000000000E+00   0.00000000000000E+00  -3.95742698162987E-13  -4.84993640548756E-12  -5.24567910365055E-12
     -2.43442537927373E-31
      7.00000000000000E-02
      1.40000000000000E-01   1.40000000000000E-01   0.00000000000000E+00   0.00000000000000E+00   3.86873607317009E-13
      7.82938525656744E-12   8.21625886388445E-12   7.13694893799503E-31   0.00000000000000E+00   0.00000000000000E+00
      0.00000000000000E+00   0.00000000000000E+00  -5.99166656816314E-13  -7.61709088912360E-12  -8.21625754593992E-12
     -1.39866054399267E-32
      8.00000000000000E-02
      1.60000000000000E-01   1.60000000000000E-01   0.00000000000000E+00   0.00000000000000E+00   5.51044253373621E-13
      1.16273169232698E-11   1.21783611766434E-11  -3.74992232335332E-31   0.00000000000000E+00   0.00000000000000E+00
      0.00000000000000E+00   0.00000000000000E+00  -8.48860316470655E-13  -1.13294999550294E-11  -1.21783602715000E-11
     -9.82842544427282E-33
      9.00000000000000E-02
      1.80000000000000E-01   1.80000000000000E-01   0.00000000000000E+00   0.00000000000000E+00   7.36154359683138E-13
      1.63743297318168E-11   1.71104840915000E-11  -1.34271412223296E-30   0.00000000000000E+00   0.00000000000000E+00
      0.00000000000000E+00   0.00000000000000E+00  -1.12904210234189E-12  -1.59814394613691E-11  -1.71104815637109E-11
      4.18842130471319E-31
      1.00000000000000E-01
      2.00000000000000E-01   2.00000000000000E-01   0.00000000000000E+00   0.00000000000000E+00   9.29329727880155E-13
      2.19488426341572E-11   2.28781723620374E-11  -3.99185279582773E-31   0.00000000000000E+00   0.00000000000000E+00
      0.00000000000000E+00   0.00000000000000E+00  -1.42004539176684E-12  -2.14581255744313E-11  -2.28781709661981E-11
      1.05844581707553E-31
      1.10000000000000E-01
      2.20000000000000E-01   2.20000000000000E-01   0.00000000000000E+00   0.00000000000000E+00   1.11936825283710E-12
      2.81632234600710E-11   2.92825917129081E-11   1.81447854355806E-31   0.00000000000000E+00   0.00000000000000E+00
      0.00000000000000E+00   0.00000000000000E+00  -1.70496815182855E-12  -2.75776251254791E-11  -2.92825932773076E-11
     -2.35882210662548E-31
      1.20000000000000E-01
      2.40000000000000E-01   2.40000000000000E-01   0.00000000000000E+00   0.00000000000000E+00   1.29903481321009E-12
      3.48201683661563E-11   3.61192031793664E-11  -3.50799185087891E-31   0.00000000000000E+00   0.00000000000000E+00
      0.00000000000000E+00   0.00000000000000E+00  -1.97307213550605E-12  -3.41461326527181E-11  -3.61192047882241E-11
      6.10874442997880E-31
      1.30000000000000E-01
      2.60000000000000E-01   2.60000000000000E-01   0.00000000000000E+00   0.00000000000000E+00   1.46498103638658E-12
      4.17527249505138E-11   4.32177059869004E-11  -2.79429695707941E-30   0.00000000000000E+00   0.00000000000000E+00
      0.00000000000000E+00   0.00000000000000E+00  -2.21956217589395E-12  -4.09981445528363E-11  -4.32177067287303E-11
     -4.83860944948816E-31
      1.40000000000000E-01
      2.80000000000000E-01   2.80000000000000E-01   0.00000000000000E+00   0.00000000000000E+00   1.61653157704786E-12
      4.88391963114164E-11   5.04557278884642E-11  -1.39110021672785E-30   0.00000000000000E+00   0.00000000000000E+00
      0.00000000000000E+00   0.00000000000000E+00  -2.44367863919397E-12  -4.80120487416261E-11  -5.04557273808201E-11
     -1.57254807108365E-31
      1.50000000000000E-01
      3.00000000000000E-01   3.00000000000000E-01   0.00000000000000E+00   0.00000000000000E+00   1.75443979114369E-12
      5.60000273410321E-11   5.77544671321758E-11  -1.08868712613484E-31   0.00000000000000E+00   0.00000000000000E+00
      0.00000000000000E+00   0.00000000000000E+00  -2.64678164577670E-12  -5.51076799692252E-11  -5.77544616150019E-11
     -2.66123519721849E-31
      1.60000000000000E-01
      3.20000000000000E-01   3.20000000000000E-01   0.00000000000000E+00   0.00000000000000E+00   1.88003771217626E-12
      6.31873072951383E-11   6.50673450073146E-11  -1.56045154745993E-30   0.00000000000000E+00   0.00000000000000E+00
      0.00000000000000E+00   0.00000000000000E+00  -2.83105773195091E-12  -6.22362864987855E-11  -6.50673442307364E-11
      1.71165809275644E-30
      1.70000000000000E-01
      3.40000000000000E-01   3.40000000000000E-01   0.00000000000000E+00   0.00000000000000E+00   1.99477377936470E-12
      7.03740478104138E-11   7.23688215897785E-11   1.10078364975856E-30   0.00000000000000E+00   0.00000000000000E+00
      0.00000000000000E+00   0.00000000000000E+00  -2.99882532114972E-12  -6.93699944623825E-11  -7.23688197835322E-11
     -1.93544377979526E-31
      1.80000000000000E-01
      3.60000000000000E-01   3.60000000000000E-01   0.00000000000000E+00   0.00000000000000E+00   2.10000524694122E-12
      7.75458743856670E-11   7.96458796326082E-11  -1.81447854355806E-31   0.00000000000000E+00   0.00000000000000E+00
      0.00000000000000E+00   0.00000000000000E+00  -3.15222920509765E-12  -7.64936484069137E-11  -7.96458776120114E-11
     -7.19743155611363E-31
      1.90000000000000E-01
      3.80000000000000E-01   3.80000000000000E-01   0.00000000000000E+00   0.00000000000000E+00   2.19692707355501E-12
      8.46955986862423E-11   8.68925257597973E-11  -2.72171781533709E-30   0.00000000000000E+00   0.00000000000000E+00
      0.00000000000000E+00   0.00000000000000E+00  -3.29314136058126E-12  -8.35993834066833E-11  -8.68925247672645E-11
     -1.06449407888739E-30
      2.00000000000000E-01
      4.00000000000000E-01   4.00000000000000E-01   0.00000000000000E+00   0.00000000000000E+00   2.28656366878413E-12
      9.18199274567189E-11   9.41064911255031E-11   1.02820450801623E-30   0.00000000000000E+00   0.00000000000000E+00
      0.00000000000000E+00   0.00000000000000E+00  -3.42315544533971E-12  -9.06833331887392E-11  -9.41064886340789E-11
     -4.11281803206493E-31
      2.10000000000000E-01
      4.20000000000000E-01   4.20000000000000E-01   0.00000000000000E+00   0.00000000000000E+00   2.36978501060445E-12
      9.89175847113175E-11   1.01287369721922E-10   1.66932026007341E-30   0.00000000000000E+00   0.00000000000000E+00
      0.00000000000000E+00   0.00000000000000E+00  -3.54361659198300E-12  -9.77437527920780E-11  -1.01287369384061E-10
      1.45158283484645E-31
      2.20000000000000E-01
      4.40000000000000E-01   4.40000000000000E-01   0.00000000000000E+00   0.00000000000000E+00   2.44732936690058E-12
      1.05988324451516E-10   1.08435653818416E-10  -2.78220043345569E-31   0.00000000000000E+00   0.00000000000000E+00
      0.00000000000000E+00   0.00000000000000E+00  -3.65565984297199E-12  -1.04779993205460E-10  -1.08435653048432E-10
     -2.29833948850687E-31
      2.30000000000000E-01
      4.60000000000000E-01   4.60000000000000E-01   0.00000000000000E+00   0.00000000000000E+00   2.51982540096081E-12
      1.13032383288236E-10   1.15552208689197E-10   1.35481064585668E-30   0.00000000000000E+00   0.00000000000000E+00
      0.00000000000000E+00   0.00000000000000E+00  -3.76024659764624E-12  -1.11791958766936E-10  -1.15552205364582E-10
     -4.83860944948816E-31
      2.40000000000000E-01
      4.80000000000000E-01   4.80000000000000E-01   0.00000000000000E+00   0.00000000000000E+00   2.58781128245349E-12
      1.20050212283047E-10   1.22638023565500E-10  -9.31432319026470E-31   0.00000000000000E+00   0.00000000000000E+00
      0.00000000000000E+00   0.00000000000000E+00  -3.85819573485119E-12  -1.18779826826866E-10  -1.22638022561718E-10
     -4.12491455568865E-30
      2.50000000000000E-01
      5.00000000000000E-01   5.00000000000000E-01   0.00000000000000E+00   0.00000000000000E+00   2.65175043405805E-12
      1.27042364791879E-10   1.29694115225937E-10  -1.99592639791386E-30   0.00000000000000E+00   0.00000000000000E+00
      0.00000000000000E+00   0.00000000000000E+00  -3.95020905829402E-12  -1.25743905600937E-10  -1.29694114659231E-10
     -7.01598370175783E-31
      2.60000000000000E-01
      5.20000000000000E-01   5.20000000000000E-01   0.00000000000000E+00   0.00000000000000E+00   2.71204426279836E-12
      1.34009410375324E-10   1.36721454638122E-10   2.16527772864595E-30   0.00000000000000E+00   0.00000000000000E+00
      0.00000000000000E+00   0.00000000000000E+00  -4.03689174799669E-12  -1.32684563181274E-10  -1.36721454929271E-10
      1.63303068920225E-30
      2.70000000000000E-01
      5.40000000000000E-01   5.40000000000000E-01   0.00000000000000E+00   0.00000000000000E+00   2.76904240375201E-12
      1.40951922430372E-10   1.43720964834124E-10   1.39110021672785E-30   0.00000000000000E+00   0.00000000000000E+00
      0.00000000000000E+00   0.00000000000000E+00  -4.11876873066461E-12  -1.39602192540330E-10  -1.43720961270995E-10
     -4.47571374077655E-31
      2.80000000000000E-01
      5.60000000000000E-01   5.60000000000000E-01   0.00000000000000E+00   0.00000000000000E+00   2.82305098056122E-12
      1.47870441691625E-10   1.50693492672186E-10  -1.08868712613484E-31   0.00000000000000E+00   0.00000000000000E+00
      0.00000000000000E+00   0.00000000000000E+00  -4.19629781600376E-12  -1.46497194483824E-10  -1.50693492299827E-10
     -1.48787240571761E-30
      2.90000000000000E-01
      5.80000000000000E-01   5.80000000000000E-01   0.00000000000000E+00   0.00000000000000E+00   2.87433930434386E-12
      1.54765509846325E-10   1.57639849150669E-10  -1.27013498049064E-30   0.00000000000000E+00   0.00000000000000E+00
      0.00000000000000E+00   0.00000000000000E+00  -4.26988029826389E-12  -1.53369969452682E-10  -1.57639849750945E-10
     -1.16126626787716E-30
      3.00000000000000E-01
      6.00000000000000E-01   6.00000000000000E-01   0.00000000000000E+00   0.00000000000000E+00   2.92314534475588E-12
      1.61637637189679E-10   1.64560782534435E-10  -9.07239271779029E-31   0.00000000000000E+00   0.00000000000000E+00
      0.00000000000000E+00   0.00000000000000E+00  -4.33986957301419E-12  -1.60220913647300E-10  -1.64560783220314E-10
     -1.13707322062972E-30
      3.10000000000000E-01
      6.20000000000000E-01   6.20000000000000E-01   0.00000000000000E+00   0.00000000000000E+00   2.96968023163461E-12
      1.68487317250137E-10   1.71456997481771E-10   6.65308799304622E-31   0.00000000000000E+00   0.00000000000000E+00
      0.00000000000000E+00   0.00000000000000E+00  -4.40657819329701E-12  -1.67050417247353E-10  -1.71456995440650E-10
      6.77405322928342E-31
      3.20000000000000E-01
      6.40000000000000E-01   6.40000000000000E-01   0.00000000000000E+00   0.00000000000000E+00   3.01413198605235E-12
      1.75315012809564E-10   1.78329144795617E-10   1.10078364975856E-30   0.00000000000000E+00   0.00000000000000E+00
      0.00000000000000E+00   0.00000000000000E+00  -4.47028369042811E-12  -1.73858863641676E-10  -1.78329147332104E-10
     -1.52416197658877E-30
      3.30000000000000E-01
      6.60000000000000E-01   6.60000000000000E-01   0.00000000000000E+00   0.00000000000000E+00   3.05666863400394E-12
      1.82121194300459E-10   1.85177862934463E-10   6.16922704809740E-31   0.00000000000000E+00   0.00000000000000E+00
      0.00000000000000E+00   0.00000000000000E+00  -4.53123340934595E-12  -1.80646629142863E-10  -1.85177862552209E-10
      1.88705768530038E-30
      3.40000000000000E-01
      6.80000000000000E-01   6.80000000000000E-01   0.00000000000000E+00   0.00000000000000E+00   3.09744082149787E-12
      1.88906287883885E-10   1.92003728705383E-10  -1.70560983094458E-30   0.00000000000000E+00   0.00000000000000E+00
      0.00000000000000E+00   0.00000000000000E+00  -4.58964855160117E-12  -1.87414082933671E-10  -1.92003731485273E-10
      3.14509614216730E-31
      3.50000000000000E-01
      7.00000000000000E-01   7.00000000000000E-01   0.00000000000000E+00   0.00000000000000E+00   3.13658402382853E-12
      1.95670728642030E-10   1.98807312665859E-10   2.64913867359477E-30   0.00000000000000E+00   0.00000000000000E+00
      0.00000000000000E+00   0.00000000000000E+00  -4.64572757630528E-12  -1.94161587123866E-10  -1.98807314700171E-10
     -2.29833948850687E-30
      3.60000000000000E-01
      7.20000000000000E-01   7.20000000000000E-01   0.00000000000000E+00   0.00000000000000E+00   3.17422042212250E-12
      2.02414921576203E-10   2.05589141998325E-10   2.50398039011012E-30   0.00000000000000E+00   0.00000000000000E+00
      0.00000000000000E+00   0.00000000000000E+00  -4.69964907702240E-12  -2.00889496859291E-10  -2.05589145936313E-10
     -4.08862498481749E-30
      3.70000000000000E-01
      7.40000000000000E-01   7.40000000000000E-01   0.00000000000000E+00   0.00000000000000E+00   3.21046050522709E-12
      2.09139271615967E-10   2.12349732121194E-10  -2.09269858690363E-30   0.00000000000000E+00   0.00000000000000E+00
      0.00000000000000E+00   0.00000000000000E+00  -4.75157422797339E-12  -2.07598160455139E-10  -2.12349734683112E-10
     -2.66123519721849E-31
      3.80000000000000E-01
      7.60000000000000E-01   7.60000000000000E-01   0.00000000000000E+00   0.00000000000000E+00   3.24540444345683E-12
      2.15844163570216E-10   2.19089568013673E-10   3.74992232335332E-31   0.00000000000000E+00   0.00000000000000E+00
      0.00000000000000E+00   0.00000000000000E+00  -4.80164887403334E-12  -2.14287919539843E-10  -2.19089568413876E-10
      1.45158283484645E-31
      3.90000000000000E-01
      7.80000000000000E-01   7.80000000000000E-01   0.00000000000000E+00   0.00000000000000E+00   3.27914327173830E-12
      2.22529972142272E-10   2.25809115414010E-10  -1.14916974425344E-30   0.00000000000000E+00   0.00000000000000E+00
      0.00000000000000E+00   0.00000000000000E+00  -4.85000532438399E-12  -2.20959109202862E-10  -2.25809114527246E-10
     -3.26606137840451E-30
      4.00000000000000E-01
      8.00000000000000E-01   8.00000000000000E-01   0.00000000000000E+00   0.00000000000000E+00   3.31175991266776E-12
      2.29197061332508E-10   2.32508821245176E-10   1.46367935847017E-30   0.00000000000000E+00   0.00000000000000E+00
      0.00000000000000E+00   0.00000000000000E+00  -4.89676389827217E-12  -2.27612058142998E-10  -2.32508822041271E-10
     -4.33055545729190E-30
      4.10000000000000E-01
      8.20000000000000E-01   8.20000000000000E-01   0.00000000000000E+00   0.00000000000000E+00   3.34333006444858E-12
      2.35845788633890E-10   2.39189118698339E-10   3.99185279582773E-31   0.00000000000000E+00   0.00000000000000E+00
      0.00000000000000E+00   0.00000000000000E+00  -4.94203426234740E-12  -2.34247088815481E-10  -2.39189123077828E-10
      7.74177511918105E-31
      4.20000000000000E-01
      8.40000000000000E-01   8.40000000000000E-01   0.00000000000000E+00   0.00000000000000E+00   3.37392305035600E-12
      2.42476506829994E-10   2.45850429880350E-10   2.29833948850687E-31   0.00000000000000E+00   0.00000000000000E+00
      0.00000000000000E+00   0.00000000000000E+00  -4.98591659096923E-12  -2.40864517575172E-10  -2.45850434166141E-10
      2.29833948850687E-30
      4.30000000000000E-01
      8.60000000000000E-01   8.60000000000000E-01   0.00000000000000E+00   0.00000000000000E+00   3.40360218475273E-12
      2.49089552061285E-10   2.52493154246037E-10  -1.14916974425344E-30   0.00000000000000E+00   0.00000000000000E+00
      0.00000000000000E+00   0.00000000000000E+00  -5.02850258197880E-12  -2.47464654825595E-10  -2.52493157407574E-10
     -3.26606137840451E-30
      4.40000000000000E-01
      8.80000000000000E-01   8.80000000000000E-01   0.00000000000000E+00   0.00000000000000E+00   3.43242583874450E-12
      2.55685253248731E-10   2.59117679087475E-10   1.14916974425344E-30   0.00000000000000E+00   0.00000000000000E+00
      0.00000000000000E+00   0.00000000000000E+00  -5.06987633535864E-12  -2.54047805147891E-10  -2.59117681483250E-10
      7.98370559165546E-31
      4.50000000000000E-01
      9.00000000000000E-01   9.00000000000000E-01   0.00000000000000E+00   0.00000000000000E+00   3.46044763942870E-12
      2.62263934466752E-10   2.65724382106181E-10  -8.46756653660427E-32   0.00000000000000E+00   0.00000000000000E+00
      0.00000000000000E+00   0.00000000000000E+00  -5.11011513291042E-12  -2.60614267443702E-10  -2.65724382576613E-10
     -4.95957468572536E-30
      4.60000000000000E-01
      9.20000000000000E-01   9.20000000000000E-01   0.00000000000000E+00   0.00000000000000E+00   3.48771701106571E-12
      2.68825910177740E-10   2.72313627188806E-10   7.37887941046944E-31   0.00000000000000E+00   0.00000000000000E+00
      0.00000000000000E+00   0.00000000000000E+00  -5.14929011942824E-12  -2.67164335066256E-10  -2.72313625185685E-10
      3.36283356739427E-30
      4.70000000000000E-01
      9.40000000000001E-01   9.40000000000001E-01   0.00000000000000E+00   0.00000000000000E+00   3.51427958102550E-12
      2.75371482589038E-10   2.78885762170064E-10  -2.05640901603247E-31   0.00000000000000E+00   0.00000000000000E+00
      0.00000000000000E+00   0.00000000000000E+00  -5.18746690432268E-12  -2.73698295949882E-10  -2.78885762854205E-10
      2.44349777199152E-30
      4.80000000000000E-01
      9.60000000000001E-01   9.60000000000001E-01   0.00000000000000E+00   0.00000000000000E+00   3.54017753952482E-12
      2.81900965476579E-10   2.85441143016104E-10  -1.22174888599576E-30   0.00000000000000E+00   0.00000000000000E+00
      0.00000000000000E+00   0.00000000000000E+00  -5.22470609359728E-12  -2.80216432736262E-10  -2.85441138829859E-10
      1.23384540961948E-30
      4.90000000000000E-01
      9.80000000000001E-01   9.80000000000001E-01   0.00000000000000E+00   0.00000000000000E+00   3.56544995922207E-12
      2.88414636813758E-10   2.91980086772980E-10   6.16922704809740E-31   0.00000000000000E+00   0.00000000000000E+00
      0.00000000000000E+00   0.00000000000000E+00  -5.26106376142122E-12  -2.86719022897434E-10  -2.91980086658855E-10
     -4.76603030774583E-30
      5.00000000000000E-01
      1.00000000000000E+00   1.00000000000000E+00   0.00000000000000E+00   0.00000000000000E+00   3.59013307983801E-12
      2.94912798425864E-10   2.98502931505702E-10  -2.06850553965619E-30   0.00000000000000E+00   0.00000000000000E+00
      0.00000000000000E+00   0.00000000000000E+00  -5.29659186915575E-12  -2.93206338855615E-10  -2.98502930724770E-10
      1.49996892934133E-30
      5.10000000000000E-01
      1.02000000000000E+00   1.02000000000000E+00   0.00000000000000E+00   0.00000000000000E+00   3.61426056216964E-12
      3.01395729939445E-10   3.05009990501614E-10   3.50799185087891E-31   0.00000000000000E+00   0.00000000000000E+00
      0.00000000000000E+00   0.00000000000000E+00  -5.33133863853802E-12  -2.99678648099886E-10  -3.05009986738424E-10
     -4.74183726049839E-30
      5.20000000000000E-01
      1.04000000000000E+00   1.04000000000000E+00   0.00000000000000E+00   0.00000000000000E+00   3.63786371527493E-12
      3.07863703047916E-10   3.11501566763191E-10   5.20150515819977E-31   0.00000000000000E+00   0.00000000000000E+00
      0.00000000000000E+00   0.00000000000000E+00  -5.36534888475960E-12  -3.06136213299817E-10  -3.11501562184577E-10
     -9.41109537925447E-30
      5.30000000000000E-01
      1.06000000000000E+00   1.06000000000000E+00   0.00000000000000E+00   0.00000000000000E+00   3.66097170009308E-12
      3.14316980596823E-10   3.17977952296916E-10   2.21366382314083E-30   0.00000000000000E+00   0.00000000000000E+00
      0.00000000000000E+00   0.00000000000000E+00  -5.39866431436706E-12  -3.12579292416108E-10  -3.17977956730475E-10
     -2.66123519721849E-30
      5.40000000000000E-01
      1.08000000000000E+00   1.08000000000000E+00   0.00000000000000E+00   0.00000000000000E+00   3.68361171229995E-12
      3.20755849432807E-10   3.24439461145107E-10   1.99592639791386E-30   0.00000000000000E+00   0.00000000000000E+00
      0.00000000000000E+00   0.00000000000000E+00  -5.43132379222887E-12  -3.19008138808307E-10  -3.24439462600536E-10
     -1.35481064585668E-30
      5.50000000000000E-01
      1.10000000000000E+00   1.10000000000000E+00   0.00000000000000E+00   0.00000000000000E+00   3.70580914683501E-12
      3.27180556997560E-10   3.30886366144395E-10   9.79818413521352E-31   0.00000000000000E+00   0.00000000000000E+00
      0.00000000000000E+00   0.00000000000000E+00  -5.46336358123459E-12  -3.25423001339717E-10  -3.30886364920952E-10
     -5.80633133938579E-31
      5.60000000000000E-01
      1.12000000000000E+00   1.12000000000000E+00   0.00000000000000E+00   0.00000000000000E+00   3.72758774620624E-12
      3.33591355250424E-10   3.37318942996630E-10  -1.70560983094458E-30   0.00000000000000E+00   0.00000000000000E+00
      0.00000000000000E+00   0.00000000000000E+00  -5.49481755790429E-12  -3.31824124479521E-10  -3.37318942037425E-10
     -1.16126626787716E-29
      5.70000000000000E-01
      1.14000000000000E+00   1.14000000000000E+00   0.00000000000000E+00   0.00000000000000E+00   3.74896973441211E-12
      3.39988495495119E-10   3.43737465229531E-10   3.49589532725519E-30   0.00000000000000E+00   0.00000000000000E+00
      0.00000000000000E+00   0.00000000000000E+00  -5.52571740666787E-12  -3.38211748402253E-10  -3.43737465808921E-10
      8.32240825311963E-30
      5.80000000000000E-01
      1.16000000000000E+00   1.16000000000000E+00   0.00000000000000E+00   0.00000000000000E+00   3.76997593808375E-12
      3.46372224913941E-10   3.50142200852025E-10  -9.31432319026470E-31   0.00000000000000E+00   0.00000000000000E+00
      0.00000000000000E+00   0.00000000000000E+00  -5.55609279521956E-12  -3.44586109084654E-10  -3.50142201879873E-10
      1.45158283484645E-30
      5.90000000000000E-01
      1.18000000000000E+00   1.18000000000000E+00   0.00000000000000E+00   0.00000000000000E+00   3.79062589624721E-12
      3.52742784065917E-10   3.56533409962164E-10  -2.45559429561524E-30   0.00000000000000E+00   0.00000000000000E+00
      0.00000000000000E+00   0.00000000000000E+00  -5.58597153304750E-12  -3.50947438400000E-10  -3.56533409933047E-10
     -2.32253253575432E-30
      6.00000000000000E-01
      1.20000000000000E+00   1.20000000000000E+00   0.00000000000000E+00   0.00000000000000E+00   3.81093795993656E-12
      3.59100408993989E-10   3.62911346953925E-10   3.16928918941474E-30   0.00000000000000E+00   0.00000000000000E+00
      0.00000000000000E+00   0.00000000000000E+00  -5.61537971497836E-12  -3.57295964209977E-10  -3.62911343924956E-10
     -1.00159215604405E-29
      6.10000000000000E-01
      1.22000000000000E+00   1.22000000000000E+00   0.00000000000000E+00   0.00000000000000E+00   3.83092938273726E-12
      3.65445321503156E-10   3.69276250885893E-10   1.02820450801623E-30   0.00000000000000E+00   0.00000000000000E+00
      0.00000000000000E+00   0.00000000000000E+00  -5.64434185135093E-12  -3.63631910454168E-10  -3.69276252305519E-10
      8.56433872559404E-30
      6.20000000000000E-01
      1.24000000000000E+00   1.24000000000000E+00   0.00000000000000E+00   0.00000000000000E+00   3.85061640320792E-12
      3.71777765255717E-10   3.75628381658925E-10   1.08868712613484E-31   0.00000000000000E+00   0.00000000000000E+00
      0.00000000000000E+00   0.00000000000000E+00  -5.67288098623855E-12  -3.69955497237203E-10  -3.75628378223441E-10
      2.41930472474408E-30
      6.30000000000000E-01
      1.26000000000000E+00   1.26000000000000E+00   0.00000000000000E+00   0.00000000000000E+00   3.87001432002170E-12
      3.78097944796402E-10   3.81967959116424E-10  -9.07239271779029E-31   0.00000000000000E+00   0.00000000000000E+00
      0.00000000000000E+00   0.00000000000000E+00  -5.70101880497380E-12  -3.76266940913667E-10  -3.81967959718641E-10
      2.56446300822872E-30
      6.40000000000000E-01
      1.28000000000000E+00   1.28000000000000E+00   0.00000000000000E+00   0.00000000000000E+00   3.88913756056532E-12
      3.84406096082863E-10   3.88295233643428E-10   6.16922704809740E-31   0.00000000000000E+00   0.00000000000000E+00
      0.00000000000000E+00   0.00000000000000E+00  -5.72877573208053E-12  -3.82566454170804E-10  -3.88295229902884E-10
      5.51601477241650E-30
      6.50000000000000E-01
      1.30000000000000E+00   1.30000000000000E+00   0.00000000000000E+00   0.00000000000000E+00   3.90799974365293E-12
      3.90702417771958E-10   3.94610417515611E-10   1.92334725617154E-30   0.00000000000000E+00   0.00000000000000E+00
      0.00000000000000E+00   0.00000000000000E+00  -5.75617102059385E-12  -3.88854246109070E-10  -3.94610417129663E-10
      2.70962129171337E-30
      6.60000000000000E-01
      1.32000000000000E+00   1.32000000000000E+00   0.00000000000000E+00   0.00000000000000E+00   3.92661373693786E-12
      3.96987130441387E-10   4.00913744178325E-10   1.36690716948040E-30   0.00000000000000E+00   0.00000000000000E+00
      0.00000000000000E+00   0.00000000000000E+00  -5.78322283363668E-12  -3.95130522320617E-10  -4.00913745154254E-10
      6.29019228433460E-31
      6.70000000000000E-01
      1.34000000000000E+00   1.34000000000000E+00   0.00000000000000E+00   0.00000000000000E+00   3.94499170953696E-12
      4.03260439634478E-10   4.07205431344015E-10  -3.13299961854358E-30   0.00000000000000E+00   0.00000000000000E+00
      0.00000000000000E+00   0.00000000000000E+00  -5.80994831902523E-12  -4.01395484965746E-10  -4.07205433284771E-10
     -3.87088755959053E-30
      6.80000000000000E-01
      1.36000000000000E+00   1.36000000000000E+00   0.00000000000000E+00   0.00000000000000E+00   3.96314518033226E-12
      4.09522556698543E-10   4.13485701878875E-10   2.21366382314083E-30   0.00000000000000E+00   0.00000000000000E+00
      0.00000000000000E+00   0.00000000000000E+00  -5.83636367759057E-12  -4.07649332847372E-10  -4.13485696524963E-10
      4.01604584307517E-30
      6.90000000000000E-01