DF-ISE text

Info {
  version   = 1.0
  type      = xyplot
  datasets  = [
    "time"
    "ntype OuterVoltage" "ntype InnerVoltage" "ntype QuasiFermiPotential" "ntype DisplacementCurrent" "ntype eCurrent"
    "ntype hCurrent" "ntype TotalCurrent" "ntype Charge" "ptype OuterVoltage" "ptype InnerVoltage"
    "ptype QuasiFermiPotential" "ptype DisplacementCurrent" "ptype eCurrent" "ptype hCurrent" "ptype TotalCurrent"
    "ptype Charge" ]
  functions = [
    Time
    OuterVoltage InnerVoltage QuasiFermiPotential DisplacementCurrent eCurrent
    hCurrent TotalCurrent Charge OuterVoltage InnerVoltage
    QuasiFermiPotential DisplacementCurrent eCurrent hCurrent TotalCurrent
    Charge ]
}

Data {
      0.00000000000000E+00
      0.00000000000000E+00   0.00000000000000E+00   0.00000000000000E+00   0.00000000000000E+00   9.61315200000026E-08
     -9.61315200000027E-08  -1.72814591332222E-23  -1.23384540961948E-30   0.00000000000000E+00   0.00000000000000E+00
      0.00000000000000E+00   0.00000000000000E+00   4.23194733475567E-29  -3.40495035647666E-24  -3.40490803700331E-24
      8.22563606412987E-31
      0.00000000000000E+00
      0.00000000000000E+00   0.00000000000000E+00   0.00000000000000E+00   0.00000000000000E+00   1.50204751996396E-07
     -8.66740927198136E-08   6.35306592765829E-08  -5.80633133938579E-31   0.00000000000000E+00   0.00000000000000E+00
      0.00000000000000E+00   0.00000000000000E+00   5.34543270970875E-10   3.31934384377303E-12   5.37862614814648E-10
     -1.57859633289551E-30
      0.00000000000000E+00
      0.00000000000000E+00   0.00000000000000E+00   0.00000000000000E+00   0.00000000000000E+00   1.50038197265941E-07
     -1.50571272449805E-07  -5.33075183864141E-10  -4.71764421325095E-31   0.00000000000000E+00   0.00000000000000E+00
      0.00000000000000E+00   0.00000000000000E+00   5.33055458051306E-10   1.97248130958382E-14   5.33075182864402E-10
      1.14916974425344E-31
      1.00000000000000E-02
      2.00000000000000E-02   2.00000000000000E-02   0.00000000000000E+00   0.00000000000000E+00   1.50085369916173E-07
     -1.50561408977076E-07  -4.76039060902806E-10   8.83046224531589E-31   0.00000000000000E+00   0.00000000000000E+00
      0.00000000000000E+00   0.00000000000000E+00   4.76156256616490E-10  -1.17198685677902E-13   4.76039057930812E-10
      3.38702661464171E-31
      2.00000000000000E-02
      4.00000000000000E-02   4.00000000000000E-02   0.00000000000000E+00   0.00000000000000E+00   1.50134973097248E-07
     -1.50550921946986E-07  -4.15948849737914E-10  -3.49589532725519E-30   0.00000000000000E+00   0.00000000000000E+00
      0.00000000000000E+00   0.00000000000000E+00   4.16302454948093E-10  -3.53603251699653E-13   4.15948851696394E-10
     -2.60075257909988E-31
      3.00000000000000E-02
      6.00000000000000E-02   6.00000000000000E-02   0.00000000000000E+00   0.00000000000000E+00   1.50186649512439E-07
     -1.50539822168216E-07  -3.53172655776938E-10   3.60476403986868E-30   0.00000000000000E+00   0.00000000000000E+00
      0.00000000000000E+00   0.00000000000000E+00   3.53933463662928E-10  -7.60806361703738E-13   3.53172657301224E-10
      4.53619635889515E-32
      4.00000000000000E-02
      8.00000000000000E-02   8.00000000000000E-02   0.00000000000000E+00   0.00000000000000E+00   1.50239457006587E-07
     -1.50528213622714E-07  -2.88756616127322E-10   2.60075257909988E-30   0.00000000000000E+00   0.00000000000000E+00
      0.00000000000000E+00   0.00000000000000E+00   2.90204950473872E-10  -1.44833472528485E-12   2.88756615748587E-10
     -4.92933337666606E-31
      5.00000000000000E-02
      1.00000000000000E-01   1.00000000000000E-01   0.00000000000000E+00   0.00000000000000E+00   1.50291623003694E-07
     -1.50516341991703E-07  -2.24718988009365E-10   1.42738978759901E-30   0.00000000000000E+00   0.00000000000000E+00
      0.00000000000000E+00   0.00000000000000E+00   2.27289287079372E-10  -2.57030112013494E-12   2.24718985959237E-10
      9.52601235367981E-32
      6.00000000000000E-02
      1.20000000000000E-01   1.20000000000000E-01   0.00000000000000E+00   0.00000000000000E+00   1.50340544408068E-07
     -1.50504600895971E-07  -1.64056487903666E-10   3.07251700042498E-30   0.00000000000000E+00   0.00000000000000E+00
      0.00000000000000E+00   0.00000000000000E+00   1.68374716900549E-10  -4.31823114740370E-12   1.64056485753146E-10
      1.55742741655400E-31
      7.00000000000000E-02
      1.40000000000000E-01   1.40000000000000E-01   0.00000000000000E+00   0.00000000000000E+00   1.50383308534390E-07
     -1.50493444136991E-07  -1.10135602601102E-10  -2.05640901603247E-31   0.00000000000000E+00   0.00000000000000E+00
      0.00000000000000E+00   0.00000000000000E+00   1.17023937874737E-10  -6.88833520496605E-12   1.10135602669771E-10
      2.53270963371646E-32
      8.00000000000000E-02
      1.60000000000000E-01   1.60000000000000E-01   0.00000000000000E+00   0.00000000000000E+00   1.50417685915699E-07
     -1.50483216662720E-07  -6.55307470205349E-11  -1.69351330732086E-30   0.00000000000000E+00   0.00000000000000E+00
      0.00000000000000E+00   0.00000000000000E+00   7.59517692900599E-11  -1.04210193292274E-11   6.55307499608325E-11
     -2.11689163415107E-32
      9.00000000000000E-02
      1.80000000000000E-01   1.80000000000000E-01   0.00000000000000E+00   0.00000000000000E+00   1.50442991966376E-07
     -1.50474019392465E-07  -3.10274260895167E-11   1.04030103163995E-30   0.00000000000000E+00   0.00000000000000E+00
      0.00000000000000E+00   0.00000000000000E+00   4.59677792466214E-11  -1.49403528085548E-11   3.10274264380666E-11
     -7.10670762893573E-32
      1.00000000000000E-01
      2.00000000000000E-01   2.00000000000000E-01   0.00000000000000E+00   0.00000000000000E+00   1.50460161514788E-07
     -1.50465716525444E-07  -5.55501065585258E-12   2.90316566969289E-31   0.00000000000000E+00   0.00000000000000E+00
      0.00000000000000E+00   0.00000000000000E+00   2.58958752492169E-11  -2.03408635073137E-11   5.55501174190320E-12
      3.32654399652311E-31
      1.10000000000000E-01
      2.20000000000000E-01   2.20000000000000E-01   0.00000000000000E+00   0.00000000000000E+00   1.50471069766265E-07
     -1.50458057068269E-07   1.30126979968498E-11   2.04431249240875E-30   0.00000000000000E+00   0.00000000000000E+00
      0.00000000000000E+00   0.00000000000000E+00   1.34203322866836E-11  -2.64330270921881E-11  -1.30126948055045E-11
     -1.36085890766854E-31
      1.20000000000000E-01
      2.40000000000000E-01   2.40000000000000E-01   0.00000000000000E+00   0.00000000000000E+00   1.50477707953219E-07
     -1.50450797914936E-07   2.69100382827351E-11   0.00000000000000E+00   0.00000000000000E+00   0.00000000000000E+00
      0.00000000000000E+00   0.00000000000000E+00   6.09918460247035E-12  -3.30092215525589E-11  -2.69100369500885E-11
      1.42134152578715E-31
      1.30000000000000E-01
      2.60000000000000E-01   2.60000000000000E-01   0.00000000000000E+00   0.00000000000000E+00   1.50481686515637E-07
     -1.50443762694962E-07   3.79238206746875E-11   9.19335795402750E-31   0.00000000000000E+00   0.00000000000000E+00
      0.00000000000000E+00   0.00000000000000E+00   1.96728694762460E-12  -3.98911086401991E-11  -3.79238216925745E-11
     -3.99185279582773E-31
      1.40000000000000E-01
      2.80000000000000E-01   2.80000000000000E-01   0.00000000000000E+00   0.00000000000000E+00   1.50484111954549E-07
     -1.50436844807827E-07   4.72671467214009E-11   2.20156729951711E-30   0.00000000000000E+00   0.00000000000000E+00
      0.00000000000000E+00   0.00000000000000E+00  -3.19499180588574E-13  -4.69476424316066E-11  -4.72671416121952E-11
     -8.46756653660427E-32
      1.50000000000000E-01
      3.00000000000000E-01   3.00000000000000E-01   0.00000000000000E+00   0.00000000000000E+00   1.50485668028602E-07
     -1.50429987755564E-07   5.56802730375822E-11  -1.99592639791386E-30   0.00000000000000E+00   0.00000000000000E+00
      0.00000000000000E+00   0.00000000000000E+00  -1.58778258936211E-12  -5.40924918196817E-11  -5.56802744090438E-11
     -9.73770151709491E-31
      1.60000000000000E-01
      3.20000000000000E-01   3.20000000000000E-01   0.00000000000000E+00   0.00000000000000E+00   1.50486748547997E-07
     -1.50423164593517E-07   6.35839544805005E-11   8.22563606412987E-31   0.00000000000000E+00   0.00000000000000E+00
      0.00000000000000E+00   0.00000000000000E+00  -2.31084547764958E-12  -6.12731056311393E-11  -6.35839511087889E-11
      5.92729657562299E-31
      1.70000000000000E-01
      3.40000000000000E-01   3.40000000000000E-01   0.00000000000000E+00   0.00000000000000E+00   1.50487570075806E-07
     -1.50416363869887E-07   7.12062059193484E-11   3.50799185087891E-31   0.00000000000000E+00   0.00000000000000E+00
      0.00000000000000E+00   0.00000000000000E+00  -2.74686614748221E-12  -6.84593403247504E-11  -7.12062064722326E-11
     -8.34660130036707E-31
      1.80000000000000E-01
      3.60000000000000E-01   3.60000000000000E-01   0.00000000000000E+00   0.00000000000000E+00   1.50488248316128E-07
     -1.50409581439785E-07   7.86668763435162E-11  -5.32247039443697E-31   0.00000000000000E+00   0.00000000000000E+00
      0.00000000000000E+00   0.00000000000000E+00  -3.03217700018549E-12  -7.56346983353280E-11  -7.86668753355135E-11
     -1.56045154745993E-30
      1.90000000000000E-01
      3.80000000000000E-01   3.80000000000000E-01   0.00000000000000E+00   0.00000000000000E+00   1.50488844179143E-07
     -1.50402816366161E-07   8.60278129822807E-11   6.16922704809740E-31   0.00000000000000E+00   0.00000000000000E+00
      0.00000000000000E+00   0.00000000000000E+00  -3.23728454384600E-12  -8.27905280114137E-11  -8.60278125552597E-11
     -8.83046224531589E-31
      2.00000000000000E-01
      4.00000000000000E-01   4.00000000000000E-01   0.00000000000000E+00   0.00000000000000E+00   1.50489389682959E-07
     -1.50396068922467E-07   9.33207604924988E-11  -2.21366382314083E-30   0.00000000000000E+00   0.00000000000000E+00
      0.00000000000000E+00   0.00000000000000E+00  -3.39824884556534E-12  -8.99225122521729E-11  -9.33207610977382E-11
      2.29833948850687E-30
      2.10000000000000E-01
      4.20000000000000E-01   4.20000000000000E-01   0.00000000000000E+00   0.00000000000000E+00   1.50489901883599E-07
     -1.50389339735136E-07   1.00562148463148E-10  -1.69351330732086E-30   0.00000000000000E+00   0.00000000000000E+00
      0.00000000000000E+00   0.00000000000000E+00  -3.53348592786789E-12  -9.70286632002587E-11  -1.00562149128127E-10
     -6.29019228433460E-31
      2.20000000000000E-01
      4.40000000000000E-01   4.40000000000000E-01   0.00000000000000E+00   0.00000000000000E+00   1.50490390151638E-07
     -1.50382629432143E-07   1.07760719495612E-10  -3.10880657129614E-30   0.00000000000000E+00   0.00000000000000E+00
      0.00000000000000E+00   0.00000000000000E+00  -3.65249641381728E-12  -1.04108221105042E-10  -1.07760717518860E-10
     -3.14509614216730E-31
      2.30000000000000E-01
      4.60000000000000E-01   4.60000000000000E-01   0.00000000000000E+00   0.00000000000000E+00   1.50490859902833E-07
     -1.50375938535263E-07   1.14921367570388E-10   7.01598370175783E-31   0.00000000000000E+00   0.00000000000000E+00
      0.00000000000000E+00   0.00000000000000E+00  -3.76030681796767E-12  -1.11161065389908E-10  -1.14921372207876E-10
      2.78220043345569E-31
      2.40000000000000E-01
      4.80000000000000E-01   4.80000000000000E-01   0.00000000000000E+00   0.00000000000000E+00   1.50491314490314E-07
     -1.50369267387818E-07   1.22047102495973E-10   4.57248592976631E-30   0.00000000000000E+00   0.00000000000000E+00
      0.00000000000000E+00   0.00000000000000E+00  -3.85969777434186E-12  -1.18187404859949E-10  -1.22047102634291E-10
     -2.02011944516131E-30
      2.50000000000000E-01
      5.00000000000000E-01   5.00000000000000E-01   0.00000000000000E+00   0.00000000000000E+00   1.50491756160980E-07
     -1.50362616232003E-07   1.29139928977532E-10   3.54428142175007E-30   0.00000000000000E+00   0.00000000000000E+00
      0.00000000000000E+00   0.00000000000000E+00  -3.95231217985219E-12  -1.25187616109320E-10  -1.29139928289172E-10
     -1.79028549631062E-30
      2.60000000000000E-01
      5.20000000000000E-01   5.20000000000000E-01   0.00000000000000E+00   0.00000000000000E+00   1.50492186541053E-07
     -1.50355985178227E-07   1.36201362825574E-10  -3.62895708711612E-31   0.00000000000000E+00   0.00000000000000E+00
      0.00000000000000E+00   0.00000000000000E+00  -4.03920419916848E-12  -1.32162159288923E-10  -1.36201363488092E-10
     -1.69351330732086E-30
      2.70000000000000E-01
      5.40000000000000E-01   5.40000000000000E-01   0.00000000000000E+00   0.00000000000000E+00   1.50492606886115E-07
     -1.50349374240278E-07   1.43232645837037E-10   3.38702661464171E-31   0.00000000000000E+00   0.00000000000000E+00
      0.00000000000000E+00   0.00000000000000E+00  -4.12111175243600E-12  -1.39111533888016E-10  -1.43232645640452E-10
      1.08868712613484E-31
      2.80000000000000E-01
      5.60000000000000E-01   5.60000000000000E-01   0.00000000000000E+00   0.00000000000000E+00   1.50493018213376E-07
     -1.50342783361500E-07   1.50234851876553E-10  -6.04826181186020E-31   0.00000000000000E+00   0.00000000000000E+00
      0.00000000000000E+00   0.00000000000000E+00  -4.19859300914006E-12  -1.46036255179995E-10  -1.50234848189135E-10
      1.10078364975856E-30
      2.90000000000000E-01
      5.80000000000000E-01   5.80000000000000E-01   0.00000000000000E+00   0.00000000000000E+00   1.50493421374633E-07
     -1.50336212437387E-07   1.57208937246240E-10   1.01610798439251E-30   0.00000000000000E+00   0.00000000000000E+00
      0.00000000000000E+00   0.00000000000000E+00  -4.27209610599547E-12  -1.52936841411294E-10  -1.57208937517289E-10
     -2.23785687038827E-30
      3.00000000000000E-01
      6.00000000000000E-01   6.00000000000000E-01   0.00000000000000E+00   0.00000000000000E+00   1.50493817098918E-07
     -1.50329661294415E-07   1.64155804503344E-10   1.01610798439251E-30   0.00000000000000E+00   0.00000000000000E+00
      0.00000000000000E+00   0.00000000000000E+00  -4.34199597158249E-12  -1.59813806666102E-10  -1.64155802637685E-10
     -3.96765974858029E-30
      3.10000000000000E-01
      6.20000000000000E-01   6.20000000000000E-01   0.00000000000000E+00   0.00000000000000E+00   1.50494206019223E-07
     -1.50323129746822E-07   1.71076272400245E-10  -1.20965236237204E-31   0.00000000000000E+00   0.00000000000000E+00
      0.00000000000000E+00   0.00000000000000E+00  -4.40861478975377E-12  -1.66667656809758E-10  -1.71076271599511E-10
     -2.44349777199152E-30
      3.20000000000000E-01
      6.40000000000000E-01   6.40000000000000E-01   0.00000000000000E+00   0.00000000000000E+00   1.50494588690517E-07
     -1.50316617571313E-07   1.77971119203551E-10  -3.62895708711612E-31   0.00000000000000E+00   0.00000000000000E+00
      0.00000000000000E+00   0.00000000000000E+00  -4.47223416896556E-12  -1.73498887163411E-10  -1.77971121332376E-10
     -1.62093416557853E-30
      3.30000000000000E-01
      6.60000000000000E-01   6.60000000000000E-01   0.00000000000000E+00   0.00000000000000E+00   1.50494965602737E-07
     -1.50310124517224E-07   1.84841085512872E-10   6.77405322928342E-31   0.00000000000000E+00   0.00000000000000E+00
      0.00000000000000E+00   0.00000000000000E+00  -4.53310297165413E-12  -1.80307981195093E-10  -1.84841084166747E-10
     -1.16126626787716E-30
      3.40000000000000E-01
      6.80000000000000E-01   6.80000000000000E-01   0.00000000000000E+00   0.00000000000000E+00   1.50495337190670E-07
     -1.50303650339181E-07   1.91686851489386E-10  -1.39110021672785E-30   0.00000000000000E+00   0.00000000000000E+00
      0.00000000000000E+00   0.00000000000000E+00  -4.59144276232066E-12  -1.87095409834698E-10  -1.91686852597018E-10
      4.83860944948816E-31
      3.50000000000000E-01
      7.00000000000000E-01   7.00000000000000E-01   0.00000000000000E+00   0.00000000000000E+00   1.50495703841778E-07
     -1.50297194760033E-07   1.98509081744920E-10   4.23378326830214E-31   0.00000000000000E+00   0.00000000000000E+00
      0.00000000000000E+00   0.00000000000000E+00  -4.64745186339247E-12  -1.93861631187633E-10  -1.98509083051025E-10
      5.08053992196256E-31
      3.60000000000000E-01
      7.20000000000000E-01   7.20000000000000E-01   0.00000000000000E+00   0.00000000000000E+00   1.50496065902578E-07
     -1.50290757501681E-07   2.05308400896781E-10  -9.07239271779029E-31   0.00000000000000E+00   0.00000000000000E+00
      0.00000000000000E+00   0.00000000000000E+00  -4.70130853411079E-12  -2.00607090511063E-10  -2.05308399045174E-10
      2.37091863024920E-30
      3.70000000000000E-01
      7.40000000000000E-01   7.40000000000000E-01   0.00000000000000E+00   0.00000000000000E+00   1.50496423683942E-07
     -1.50284338286400E-07   2.12085397542118E-10  -1.13707322062972E-30   0.00000000000000E+00   0.00000000000000E+00
      0.00000000000000E+00   0.00000000000000E+00  -4.75317355344193E-12  -2.07332220365926E-10  -2.12085393919368E-10
      2.66123519721849E-31
      3.80000000000000E-01
      7.60000000000000E-01   7.60000000000000E-01   0.00000000000000E+00   0.00000000000000E+00   1.50496777465553E-07
     -1.50277936832902E-07   2.18840632651387E-10   1.20965236237204E-31   0.00000000000000E+00   0.00000000000000E+00
      0.00000000000000E+00   0.00000000000000E+00  -4.80319236985521E-12  -2.14037440886902E-10  -2.18840633256757E-10
      2.83058652795057E-30
      3.90000000000000E-01
      7.80000000000000E-01   7.80000000000000E-01   0.00000000000000E+00   0.00000000000000E+00   1.50497127499695E-07
     -1.50271552840676E-07   2.25574659018372E-10  -1.93544377979526E-31   0.00000000000000E+00   0.00000000000000E+00
      0.00000000000000E+00   0.00000000000000E+00  -4.85149691930436E-12  -2.20723160130149E-10  -2.25574657049453E-10
      3.14509614216730E-31
      4.00000000000000E-01
      8.00000000000000E-01   8.00000000000000E-01   0.00000000000000E+00   0.00000000000000E+00   1.50497474014501E-07
     -1.50265186033701E-07   2.32287980800594E-10  -1.13707322062972E-30   0.00000000000000E+00   0.00000000000000E+00
      0.00000000000000E+00   0.00000000000000E+00  -4.89820717925116E-12  -2.27389774470289E-10  -2.32287981649540E-10
      0.00000000000000E+00
      4.10000000000000E-01
      8.20000000000000E-01   8.20000000000000E-01   0.00000000000000E+00   0.00000000000000E+00   1.50497817216741E-07
     -1.50258836116015E-07   2.38981100726084E-10   8.46756653660428E-31   0.00000000000000E+00   0.00000000000000E+00
      0.00000000000000E+00   0.00000000000000E+00  -4.94343250720978E-12  -2.34037669026105E-10  -2.38981101533315E-10
     -3.26606137840451E-30
      4.20000000000000E-01
      8.40000000000000E-01   8.40000000000000E-01   0.00000000000000E+00   0.00000000000000E+00   1.50498157294243E-07
     -1.50252502800365E-07   2.45654493878813E-10  -1.70560983094458E-30   0.00000000000000E+00   0.00000000000000E+00
      0.00000000000000E+00   0.00000000000000E+00  -4.98727280031651E-12  -2.40667218099978E-10  -2.45654490900295E-10
     -1.28223150411436E-30
      4.30000000000000E-01
      8.60000000000000E-01   8.60000000000000E-01   0.00000000000000E+00   0.00000000000000E+00   1.50498494418861E-07
     -1.50246185812570E-07   2.52308606290875E-10   1.11288017338228E-30   0.00000000000000E+00   0.00000000000000E+00
      0.00000000000000E+00   0.00000000000000E+00  -5.02981942065315E-12  -2.47278785621264E-10  -2.52308605041917E-10
     -1.76609244906318E-30
      4.40000000000000E-01
      8.80000000000000E-01   8.80000000000000E-01   0.00000000000000E+00   0.00000000000000E+00   1.50498828744822E-07
     -1.50239884859056E-07   2.58943885766023E-10  -1.99592639791386E-30   0.00000000000000E+00   0.00000000000000E+00
      0.00000000000000E+00   0.00000000000000E+00  -5.07115641457572E-12  -2.53872725579718E-10  -2.58943881994294E-10
     -1.69351330732085E-31
      4.50000000000000E-01
      9.00000000000000E-01   9.00000000000000E-01   0.00000000000000E+00   0.00000000000000E+00   1.50499160415538E-07
     -1.50233599675535E-07   2.65560740003635E-10   9.43528842650191E-31   0.00000000000000E+00   0.00000000000000E+00
      0.00000000000000E+00   0.00000000000000E+00  -5.11136077521082E-12  -2.60449382459210E-10  -2.65560743234421E-10
     -2.20156729951711E-30
      4.60000000000000E-01
      9.20000000000000E-01   9.20000000000000E-01   0.00000000000000E+00   0.00000000000000E+00   1.50499489561541E-07
     -1.50227329967618E-07   2.72159593923220E-10   1.69351330732085E-31   0.00000000000000E+00   0.00000000000000E+00
      0.00000000000000E+00   0.00000000000000E+00  -5.15050346501603E-12  -2.67009091646602E-10  -2.72159595111618E-10
      9.62883280448143E-30
      4.70000000000000E-01
      9.40000000000001E-01   9.40000000000001E-01   0.00000000000000E+00   0.00000000000000E+00   1.50499816302579E-07
     -1.50221075472646E-07   2.78740829932740E-10  -3.16928918941474E-30   0.00000000000000E+00   0.00000000000000E+00
      0.00000000000000E+00   0.00000000000000E+00  -5.18864992870083E-12  -2.73552179829799E-10  -2.78740829758500E-10
     -7.93531949716058E-30
      4.80000000000000E-01
      9.60000000000001E-01   9.60000000000001E-01   0.00000000000000E+00   0.00000000000000E+00   1.50500140748706E-07
     -1.50214835925732E-07   2.85304822974156E-10  -3.99185279582773E-30   0.00000000000000E+00   0.00000000000000E+00
      0.00000000000000E+00   0.00000000000000E+00  -5.22586062321052E-12  -2.80078965376794E-10  -2.85304826000005E-10
      5.24989125269465E-30
      4.90000000000000E-01
      9.80000000000001E-01   9.80000000000001E-01   0.00000000000000E+00   0.00000000000000E+00   1.50500463001242E-07
     -1.50208611051400E-07   2.91851949842362E-10  -1.62093416557853E-30   0.00000000000000E+00   0.00000000000000E+00
      0.00000000000000E+00   0.00000000000000E+00  -5.26219148755346E-12  -2.86589758696135E-10  -2.91851950183688E-10
      1.00885007021828E-29
      5.00000000000000E-01
      1.00000000000000E+00   1.00000000000000E+00   0.00000000000000E+00   0.00000000000000E+00   1.50500783153627E-07
     -1.50202400599041E-07   2.98382554585649E-10   8.34660130036707E-31   0.00000000000000E+00   0.00000000000000E+00
      0.00000000000000E+00   0.00000000000000E+00  -5.29769436030096E-12  -2.93084862578632E-10  -2.98382556938933E-10
     -5.66117305590114E-30
      5.10000000000000E-01
      1.02000000000000E+00   1.02000000000000E+00   0.00000000000000E+00   0.00000000000000E+00   1.50501101292171E-07
     -1.50196204300785E-07   3.04896991385882E-10   5.44343563067418E-31   0.00000000000000E+00   0.00000000000000E+00
      0.00000000000000E+00   0.00000000000000E+00  -5.33241735143344E-12  -2.99564572520505E-10  -3.04896989871938E-10
     -5.61278696140626E-30
      5.20000000000000E-01
      1.04000000000000E+00   1.04000000000000E+00   0.00000000000000E+00   0.00000000000000E+00   1.50501417496735E-07
     -1.50190021912841E-07   3.11395583893492E-10  -2.06850553965619E-30   0.00000000000000E+00   0.00000000000000E+00
      0.00000000000000E+00   0.00000000000000E+00  -5.36640517424675E-12  -3.06029177028424E-10  -3.11395582202671E-10
      5.70955915039602E-30
      5.30000000000000E-01
      1.06000000000000E+00   1.06000000000000E+00   0.00000000000000E+00   0.00000000000000E+00   1.50501731841324E-07
     -1.50183853178507E-07   3.17878662817110E-10  -7.49984464670664E-31   0.00000000000000E+00   0.00000000000000E+00
      0.00000000000000E+00   0.00000000000000E+00  -5.39969944222180E-12  -3.12478957907138E-10  -3.17878657349360E-10
     -1.59674111833109E-30
      5.40000000000000E-01
      1.08000000000000E+00   1.08000000000000E+00   0.00000000000000E+00   0.00000000000000E+00   1.50502044394623E-07
     -1.50177697865714E-07   3.24346528909391E-10  -9.67721889897631E-32   0.00000000000000E+00   0.00000000000000E+00
      0.00000000000000E+00   0.00000000000000E+00  -5.43233893508327E-12  -3.18914190530431E-10  -3.24346529465514E-10
      1.64512721282597E-30
      5.50000000000000E-01
      1.10000000000000E+00   1.10000000000000E+00   0.00000000000000E+00   0.00000000000000E+00   1.50502355220482E-07
     -1.50171555720081E-07   3.30799500401319E-10   1.56045154745993E-30   0.00000000000000E+00   0.00000000000000E+00
      0.00000000000000E+00   0.00000000000000E+00  -5.46435983769771E-12  -3.25335144096299E-10  -3.30799503933997E-10
     -5.08053992196256E-30
      5.60000000000000E-01
      1.12000000000000E+00   1.12000000000000E+00   0.00000000000000E+00   0.00000000000000E+00   1.50502664378336E-07
     -1.50165426499411E-07   3.37237878925435E-10   3.02413090593010E-31   0.00000000000000E+00   0.00000000000000E+00
      0.00000000000000E+00   0.00000000000000E+00  -5.49579595497436E-12  -3.31742081867203E-10  -3.37237877822177E-10
     -7.25791417423224E-31
      5.70000000000000E-01
      1.14000000000000E+00   1.14000000000000E+00   0.00000000000000E+00   0.00000000000000E+00   1.50502971923599E-07
     -1.50159309984984E-07   3.43661938614432E-10  -1.97173335066642E-30   0.00000000000000E+00   0.00000000000000E+00
      0.00000000000000E+00   0.00000000000000E+00  -5.52667890551584E-12  -3.38135261396301E-10  -3.43661940301817E-10
     -4.01604584307517E-30
      5.80000000000000E-01
      1.16000000000000E+00   1.16000000000000E+00   0.00000000000000E+00   0.00000000000000E+00   1.50503277908005E-07
     -1.50153205936923E-07   3.50071971081734E-10   2.78220043345569E-31   0.00000000000000E+00   0.00000000000000E+00
      0.00000000000000E+00   0.00000000000000E+00  -5.55703829641540E-12  -3.44514934740569E-10  -3.50071973036984E-10
     -2.95155176418778E-30
      5.90000000000000E-01
      1.18000000000000E+00   1.18000000000000E+00   0.00000000000000E+00   0.00000000000000E+00   1.50503582379924E-07
     -1.50147114124970E-07   3.56468254953387E-10   3.50799185087891E-31   0.00000000000000E+00   0.00000000000000E+00
      0.00000000000000E+00   0.00000000000000E+00  -5.58690188128954E-12  -3.50881348661627E-10  -3.56468250542916E-10
      9.19335795402750E-31
      6.00000000000000E-01
      1.20000000000000E+00   1.20000000000000E+00   0.00000000000000E+00   0.00000000000000E+00   1.50503885384640E-07
     -1.50141034341276E-07   3.62851043363969E-10  -5.17731211095233E-30   0.00000000000000E+00   0.00000000000000E+00
      0.00000000000000E+00   0.00000000000000E+00  -5.61629570338097E-12  -3.57234744815135E-10  -3.62851040518516E-10
      9.19335795402750E-31
      6.10000000000000E-01
      1.22000000000000E+00   1.22000000000000E+00   0.00000000000000E+00   0.00000000000000E+00   1.50504186964608E-07
     -1.50134966360673E-07   3.69220603935575E-10   6.04826181186020E-32   0.00000000000000E+00   0.00000000000000E+00
      0.00000000000000E+00   0.00000000000000E+00  -5.64524422533591E-12  -3.63575359929501E-10  -3.69220604154836E-10
     -6.77405322928342E-30
      6.20000000000000E-01
      1.24000000000000E+00   1.24000000000000E+00   0.00000000000000E+00   0.00000000000000E+00   1.50504487159685E-07
     -1.50128909964838E-07   3.75577194847085E-10   9.55625366273911E-31   0.00000000000000E+00   0.00000000000000E+00
      0.00000000000000E+00   0.00000000000000E+00  -5.67377044707391E-12  -3.69903425974693E-10  -3.75577196421767E-10
     -2.41930472474408E-30
      6.30000000000000E-01
      1.26000000000000E+00   1.26000000000000E+00   0.00000000000000E+00   0.00000000000000E+00   1.50504786007333E-07
     -1.50122864938867E-07   3.81921068465315E-10   1.69351330732085E-31   0.00000000000000E+00   0.00000000000000E+00
      0.00000000000000E+00   0.00000000000000E+00  -5.70189601299536E-12  -3.76219170321796E-10  -3.81921066334791E-10
      8.08047778064522E-30
      6.40000000000000E-01
      1.28000000000000E+00   1.28000000000000E+00   0.00000000000000E+00   0.00000000000000E+00   1.50505083542814E-07
     -1.50116831084734E-07   3.88252458079147E-10   1.12497669700600E-30   0.00000000000000E+00   0.00000000000000E+00
      0.00000000000000E+00   0.00000000000000E+00  -5.72964130962874E-12  -3.82522815893998E-10  -3.88252457203627E-10
      4.83860944948816E-30
      6.50000000000000E-01
      1.30000000000000E+00   1.30000000000000E+00   0.00000000000000E+00   0.00000000000000E+00   1.50505379799359E-07
     -1.50110808190338E-07   3.94571609020719E-10  -6.16922704809740E-31   0.00000000000000E+00   0.00000000000000E+00
      0.00000000000000E+00   0.00000000000000E+00  -5.75702555469538E-12  -3.88814581309580E-10  -3.94571606864275E-10
      2.95155176418778E-30
      6.60000000000000E-01
      1.32000000000000E+00   1.32000000000000E+00   0.00000000000000E+00   0.00000000000000E+00   1.50505674808325E-07
     -1.50104796058660E-07   4.00878749664755E-10   4.11281803206493E-31   0.00000000000000E+00   0.00000000000000E+00
      0.00000000000000E+00   0.00000000000000E+00  -5.78406687845593E-12  -3.95094681017515E-10  -4.00878747895970E-10
      1.74189940181574E-30
      6.70000000000000E-01
      1.34000000000000E+00   1.34000000000000E+00   0.00000000000000E+00   0.00000000000000E+00   1.50505968599334E-07
     -1.50098794494441E-07   4.07174104893240E-10  -6.13293747722624E-30   0.00000000000000E+00   0.00000000000000E+00
      0.00000000000000E+00   0.00000000000000E+00  -5.81078239810772E-12  -4.01363325426124E-10  -4.07174107824232E-10
     -2.95155176418778E-30
      6.80000000000000E-01
      1.36000000000000E+00   1.36000000000000E+00   0.00000000000000E+00   0.00000000000000E+00   1.50506261200410E-07
     -1.50092803289975E-07   4.13457910434922E-10  -1.08868712613484E-30   0.00000000000000E+00   0.00000000000000E+00
      0.00000000000000E+00   0.00000000000000E+00  -5.83718828591998E-12  -4.07620721025348E-10  -4.13457909311268E-10
      5.56440086691138E-30
      6.90000000000000E-01