DF-ISE text

Info {
  version   = 1.0
  type      = xyplot
  datasets  = [
    "time"
    "ntype OuterVoltage" "ntype InnerVoltage" "ntype QuasiFermiPotential" "ntype DisplacementCurrent" "ntype eCurrent"
    "ntype hCurrent" "ntype TotalCurrent" "ntype Charge" "ptype OuterVoltage" "ptype InnerVoltage"
    "ptype QuasiFermiPotential" "ptype DisplacementCurrent" "ptype eCurrent" "ptype hCurrent" "ptype TotalCurrent"
    "ptype Charge" ]
  functions = [
    Time
    OuterVoltage InnerVoltage QuasiFermiPotential DisplacementCurrent eCurrent
    hCurrent TotalCurrent Charge OuterVoltage InnerVoltage
    QuasiFermiPotential DisplacementCurrent eCurrent hCurrent TotalCurrent
    Charge ]
}

Data {
      0.00000000000000E+00
      0.00000000000000E+00   0.00000000000000E+00   0.00000000000000E+00   0.00000000000000E+00  -3.86190697517445E-24
      3.86190670933337E-24  -2.65841080823278E-31  -2.41930472474408E-29   0.00000000000000E+00   0.00000000000000E+00
      0.00000000000000E+00   0.00000000000000E+00   4.23098450148043E-29  -3.43044301043785E-24  -3.43040070059283E-24
      4.53619635889515E-31
      0.00000000000000E+00
      0.00000000000000E+00   0.00000000000000E+00   0.00000000000000E+00   0.00000000000000E+00  -2.02516279058602E-24
      2.02869577136433E-24   3.53298077830975E-27   9.13529464063364E-29   0.00000000000000E+00   0.00000000000000E+00
      0.00000000000000E+00   0.00000000000000E+00  -3.44597530338706E-29  -3.42711860812603E-24  -3.42715306787906E-24
     -1.82052680536992E-30
      0.00000000000000E+00
      0.00000000000000E+00   0.00000000000000E+00   0.00000000000000E+00   0.00000000000000E+00  -6.90264472757625E-25
      5.57870406792729E-20   5.57863504148001E-20   8.17724996963498E-29   0.00000000000000E+00   0.00000000000000E+00
      0.00000000000000E+00   0.00000000000000E+00   2.84445614225150E-29   2.71210992510992E-26   2.71495438125218E-26
     -7.13694893799503E-31
      2.50000000000000E-03
      3.75000000000000E-02   3.75000000000000E-02   0.00000000000000E+00   0.00000000000000E+00   3.65365549914336E-13
      4.69436678053716E-14   4.12309217719707E-13   6.50309110011208E-29   0.00000000000000E+00   0.00000000000000E+00
      0.00000000000000E+00   0.00000000000000E+00  -3.30533389065333E-14  -3.79255606242961E-13  -4.12308945149494E-13
     -1.69351330732085E-31
      7.00000000000000E-03
      1.05000000000000E-01   1.05000000000000E-01   0.00000000000000E+00   0.00000000000000E+00   3.15910535226537E-12
      4.04543778439193E-13   3.56364913070456E-12   1.32577898915975E-29   0.00000000000000E+00   0.00000000000000E+00
      0.00000000000000E+00   0.00000000000000E+00  -2.74324045463523E-13  -3.28932498745253E-12  -3.56364903291606E-12
      2.29833948850687E-31
      1.57000000000000E-02
      2.35500000000000E-01   2.35500000000000E-01   0.00000000000000E+00   0.00000000000000E+00   2.91403348040463E-11
      3.68186647881622E-12   3.28222012828625E-11  -2.09027928217888E-29   0.00000000000000E+00   0.00000000000000E+00
      0.00000000000000E+00   0.00000000000000E+00  -1.84629398202225E-12  -3.09759074994831E-11  -3.28222014815053E-11
      3.32654399652311E-32
      2.57000000000000E-02
      3.85500000000000E-01   3.85500000000000E-01   0.00000000000000E+00   0.00000000000000E+00   7.48645725434877E-11
      9.25228894748435E-12   8.41168614909720E-11  -3.56121655482328E-29   0.00000000000000E+00   0.00000000000000E+00
      0.00000000000000E+00   0.00000000000000E+00  -3.23603102652443E-12  -8.08808308720558E-11  -8.41168618985802E-11
      1.22174888599576E-30
      3.57000000000000E-02
      5.35500000000000E-01   5.35500000000000E-01   0.00000000000000E+00   0.00000000000000E+00   1.20082968581450E-10
      1.45478711848833E-11   1.34630839766333E-10   1.33545620805873E-29   0.00000000000000E+00   0.00000000000000E+00
      0.00000000000000E+00   0.00000000000000E+00  -4.00548282412858E-12  -1.30625357597801E-10  -1.34630840421930E-10
      1.41529326397529E-30
      4.57000000000000E-02
      6.85500000000000E-01   6.85500000000000E-01   0.00000000000000E+00   0.00000000000000E+00   1.64201910877052E-10
      1.95097907163378E-11   1.83711701593389E-10  -2.32253253575432E-29   0.00000000000000E+00   0.00000000000000E+00
      0.00000000000000E+00   0.00000000000000E+00  -4.51095824234750E-12  -1.79200743371377E-10  -1.83711701613724E-10
      2.66123519721849E-30
      5.57000000000000E-02
      8.35500000000000E-01   8.35500000000000E-01   0.00000000000000E+00   0.00000000000000E+00   2.07403055987618E-10
      2.42003770341724E-11   2.31603433021790E-10   2.93219732638982E-29   0.00000000000000E+00   0.00000000000000E+00
      0.00000000000000E+00   0.00000000000000E+00  -4.88185545389073E-12  -2.26721577699379E-10  -2.31603433153270E-10
      3.38702661464171E-30
      6.57000000000000E-02
      9.85500000000000E-01   9.85500000000000E-01   0.00000000000000E+00   0.00000000000000E+00   2.49817803034858E-10
      2.86587573969034E-11   2.78476560431761E-10  -4.73216004159942E-29   0.00000000000000E+00   0.00000000000000E+00
      0.00000000000000E+00   0.00000000000000E+00  -5.17515739134123E-12  -2.73301403352145E-10  -2.78476560743486E-10
      7.47565159945920E-30
      7.57000000000000E-02
      1.13550000000000E+00   1.13550000000000E+00   0.00000000000000E+00   0.00000000000000E+00   2.91549391102224E-10
      3.29157055627060E-11   3.24465096664930E-10   3.19348223666218E-30   0.00000000000000E+00   0.00000000000000E+00
      0.00000000000000E+00   0.00000000000000E+00  -5.42008950180078E-12  -3.19045006992995E-10  -3.24465096494796E-10
     -7.25791417423224E-30
      8.57000000000000E-02
      1.28550000000000E+00   1.28550000000000E+00   0.00000000000000E+00   0.00000000000000E+00   3.32686997416706E-10
      3.69965596107077E-11   3.69683557027414E-10  -9.38690233200702E-30   0.00000000000000E+00   0.00000000000000E+00
      0.00000000000000E+00   0.00000000000000E+00  -5.63324665067646E-12  -3.64050310575268E-10  -3.69683557225945E-10
     -5.41924258342674E-30
      9.57000000000000E-02
      1.43550000000000E+00   1.43550000000000E+00   0.00000000000000E+00   0.00000000000000E+00   3.73311431220343E-10
      4.09227302847318E-11   4.14234161505075E-10   1.72254496401778E-29   0.00000000000000E+00   0.00000000000000E+00
      0.00000000000000E+00   0.00000000000000E+00  -5.82477830684965E-12  -4.08409383512289E-10  -4.14234161819139E-10
      1.64512721282597E-30
      1.05700000000000E-01
      1.58550000000000E+00   1.58550000000000E+00   0.00000000000000E+00   0.00000000000000E+00   4.13497142377323E-10
      4.47125387242966E-11   4.58209681101620E-10   1.20965236237204E-29   0.00000000000000E+00   0.00000000000000E+00
      0.00000000000000E+00   0.00000000000000E+00  -6.00124556299036E-12  -4.52208435994723E-10  -4.58209681557714E-10
      7.69338902468617E-30
      1.15700000000000E-01
      1.73550000000000E+00   1.73550000000000E+00   0.00000000000000E+00   0.00000000000000E+00   4.53312487246641E-10
      4.83817346470572E-11   5.01694221893698E-10  -8.85465529256333E-29   0.00000000000000E+00   0.00000000000000E+00
      0.00000000000000E+00   0.00000000000000E+00  -6.16706312996557E-12  -4.95527158990587E-10  -5.01694222120552E-10
      6.19342009534484E-30
      1.25700000000000E-01
      1.88550000000000E+00   1.88550000000000E+00   0.00000000000000E+00   0.00000000000000E+00   4.92819395539077E-10
      5.19438278887719E-11   5.44763223427849E-10   1.22900680016999E-29   0.00000000000000E+00   0.00000000000000E+00
      0.00000000000000E+00   0.00000000000000E+00  -6.32528273972402E-12  -5.38437940964601E-10  -5.44763223704325E-10
     -1.06449407888739E-30
      1.35700000000000E-01
      2.03550000000000E+00   2.03550000000000E+00   0.00000000000000E+00   0.00000000000000E+00   5.32073027747317E-10
      5.54104111252622E-11   5.87483438872579E-10  -7.50952186560562E-29   0.00000000000000E+00   0.00000000000000E+00
      0.00000000000000E+00   0.00000000000000E+00  -6.47804947858075E-12  -5.81005389389606E-10  -5.87483438868186E-10
      1.29190872301334E-29
      1.45700000000000E-01
      2.18550000000000E+00   2.18550000000000E+00   0.00000000000000E+00   0.00000000000000E+00   5.71122003605036E-10
      5.87913751971530E-11   6.29913378802189E-10   5.31279317553800E-29   0.00000000000000E+00   0.00000000000000E+00
      0.00000000000000E+00   0.00000000000000E+00  -6.62688703046371E-12  -6.23286492063028E-10  -6.29913379093492E-10
     -1.12255739228125E-29
      1.55700000000000E-01
      2.33550000000000E+00   2.33550000000000E+00   0.00000000000000E+00   0.00000000000000E+00   6.10008594504130E-10
      6.20952246656030E-11   6.72103819169733E-10  -1.22900680016999E-29   0.00000000000000E+00   0.00000000000000E+00
      0.00000000000000E+00   0.00000000000000E+00  -6.77288640057830E-12  -6.65330933057025E-10  -6.72103819457603E-10
      1.89673490419936E-29
      1.65700000000000E-01
      2.48550000000000E+00   2.48550000000000E+00   0.00000000000000E+00   0.00000000000000E+00   6.48769683364219E-10
      6.53292500835600E-11   7.14098933447779E-10  -3.37734939574273E-29   0.00000000000000E+00   0.00000000000000E+00
      0.00000000000000E+00   0.00000000000000E+00  -6.91683918729207E-12  -7.07182094283171E-10  -7.14098933470463E-10
     -1.62577277502802E-29
      1.75700000000000E-01
      2.63550000000000E+00   2.63550000000000E+00   0.00000000000000E+00   0.00000000000000E+00   6.87437476569318E-10
      6.84997584554932E-11   7.55937235024812E-10  -2.85477957519801E-29   0.00000000000000E+00   0.00000000000000E+00
      0.00000000000000E+00   0.00000000000000E+00  -7.05933341202574E-12  -7.48877901778561E-10  -7.55937235190587E-10
     -1.33545620805873E-29
      1.85700000000000E-01
      2.78550000000000E+00   2.78550000000000E+00   0.00000000000000E+00   0.00000000000000E+00   7.26040264273266E-10
      7.16122561981585E-11   7.97652520471424E-10   3.87088755959053E-29   0.00000000000000E+00   0.00000000000000E+00
      0.00000000000000E+00   0.00000000000000E+00  -7.20082440922112E-12  -7.90451696175788E-10  -7.97652520585009E-10
     -2.22576034676455E-30
      1.95700000000000E-01
      2.93550000000000E+00   2.93550000000000E+00   0.00000000000000E+00   0.00000000000000E+00   7.64603144167048E-10
      7.46715944478991E-11   8.39274738614947E-10  -2.82574791850108E-29   0.00000000000000E+00   0.00000000000000E+00
      0.00000000000000E+00   0.00000000000000E+00  -7.34168763158377E-12  -8.31933051008518E-10  -8.39274738640101E-10
      1.00643076549354E-29
      2.05700000000000E-01
      3.08550000000000E+00   3.08550000000000E+00   0.00000000000000E+00   0.00000000000000E+00   8.03148682777571E-10
      7.76820241193239E-11   8.80830706896895E-10   1.23868401906897E-29   0.00000000000000E+00   0.00000000000000E+00
      0.00000000000000E+00   0.00000000000000E+00  -7.48207150944341E-12  -8.73348635431331E-10  -8.80830706940774E-10
      1.15158904897818E-29
      2.15700000000000E-01
      3.23550000000000E+00   3.23550000000000E+00   0.00000000000000E+00   0.00000000000000E+00   8.41697212560207E-10
      8.06473952558292E-11   9.22344607816036E-10   1.36448786475566E-29   0.00000000000000E+00   0.00000000000000E+00
      0.00000000000000E+00   0.00000000000000E+00  -7.62424075522509E-12  -9.14720367005995E-10  -9.22344607761220E-10
     -6.19342009534484E-30
      2.25700000000000E-01
      3.38550000000000E+00   3.38550000000000E+00   0.00000000000000E+00   0.00000000000000E+00   8.80266859652595E-10
      8.35711641155706E-11   9.63838023768166E-10  -3.13541892326833E-29   0.00000000000000E+00   0.00000000000000E+00
      0.00000000000000E+00   0.00000000000000E+00  -7.76925622726798E-12  -9.56068767529920E-10  -9.63838023757188E-10
     -2.80639348070313E-30
      2.35700000000000E-01
      3.53550000000000E+00   3.53550000000000E+00   0.00000000000000E+00   0.00000000000000E+00   9.18875672416366E-10
      8.64561784646420E-11   1.00533185088101E-09   1.25803845686692E-29   0.00000000000000E+00   0.00000000000000E+00
      0.00000000000000E+00   0.00000000000000E+00  -7.91616114736678E-12  -9.97415690109274E-10  -1.00533185125664E-09
      5.03215382746768E-30
      2.45700000000000E-01
      3.68550000000000E+00   3.68550000000000E+00   0.00000000000000E+00   0.00000000000000E+00   9.57539764105127E-10
      8.93056049209685E-11   1.04684536902610E-09   3.58057099262124E-30   0.00000000000000E+00   0.00000000000000E+00
      0.00000000000000E+00   0.00000000000000E+00  -8.06569608673354E-12  -1.03877967364985E-09  -1.04684536973658E-09
      2.03221596878503E-30
      2.55700000000000E-01
      3.83550000000000E+00   3.83550000000000E+00   0.00000000000000E+00   0.00000000000000E+00   9.96275756873165E-10
      9.21221172955827E-11   1.08839787416875E-09   1.02578520329149E-29   0.00000000000000E+00   0.00000000000000E+00
      0.00000000000000E+00   0.00000000000000E+00  -8.21842141795324E-12  -1.08017945272372E-09  -1.08839787414167E-09
     -1.73222218291676E-29
      2.65700000000000E-01
      3.98550000000000E+00   3.98550000000000E+00   0.00000000000000E+00   0.00000000000000E+00   1.03509506182821E-09
      9.49077080533313E-11   1.13000276988154E-09   1.64512721282597E-30   0.00000000000000E+00   0.00000000000000E+00
      0.00000000000000E+00   0.00000000000000E+00  -8.37490064382480E-12  -1.12162786927074E-09  -1.13000276991456E-09
     -3.36767217684376E-29
      2.75700000000000E-01
      4.13550000000000E+00   4.13550000000000E+00   0.00000000000000E+00   0.00000000000000E+00   1.07401261543354E-09
      9.76647296289717E-11   1.17167734506251E-09  -8.51595263109916E-30   0.00000000000000E+00   0.00000000000000E+00
      0.00000000000000E+00   0.00000000000000E+00  -8.53573748703729E-12  -1.16314160752627E-09  -1.17167734501330E-09
      8.12886387514010E-30
      2.85700000000000E-01
      4.28550000000000E+00   4.28550000000000E+00   0.00000000000000E+00   0.00000000000000E+00   1.11304143820944E-09
      1.00395207414977E-10   1.21343664562442E-09  -1.45158283484645E-29   0.00000000000000E+00   0.00000000000000E+00
      0.00000000000000E+00   0.00000000000000E+00  -8.70155426802027E-12  -1.20473509154668E-09  -1.21343664581470E-09
     -2.65155797831951E-29
      2.95700000000000E-01
      4.43550000000000E+00   4.43550000000000E+00   0.00000000000000E+00   0.00000000000000E+00   1.15219403025061E-09
      1.03101019941471E-10   1.25529505019208E-09  -1.10320295448330E-29   0.00000000000000E+00   0.00000000000000E+00
      0.00000000000000E+00   0.00000000000000E+00  -8.87299804395845E-12  -1.24642205223123E-09  -1.25529505027519E-09
      8.51595263109916E-30
      3.05700000000000E-01
      4.58550000000000E+00   4.58550000000000E+00   0.00000000000000E+00   0.00000000000000E+00   1.19148243606102E-09
      1.05783915815104E-10   1.29726635187613E-09   2.61284910272360E-29   0.00000000000000E+00   0.00000000000000E+00
      0.00000000000000E+00   0.00000000000000E+00  -9.05074116713375E-12  -1.28821561080656E-09  -1.29726635197370E-09
      6.05793903075917E-29
      3.15700000000000E-01
      4.73550000000000E+00   4.73550000000000E+00   0.00000000000000E+00   0.00000000000000E+00   1.23091830379496E-09
      1.08445528563898E-10   1.33936383235885E-09  -1.81931715300755E-29   0.00000000000000E+00   0.00000000000000E+00
      0.00000000000000E+00   0.00000000000000E+00  -9.23548172066720E-12  -1.33012835064835E-09  -1.33936383236901E-09
      5.22569820544721E-29
      3.25700000000000E-01
      4.88550000000000E+00   4.88550000000000E+00   0.00000000000000E+00   0.00000000000000E+00   1.27051293760790E-09
      1.11087387135325E-10   1.38160032474323E-09  -5.51601477241650E-30   0.00000000000000E+00   0.00000000000000E+00
      0.00000000000000E+00   0.00000000000000E+00  -9.42794389449555E-12  -1.37217238109214E-09  -1.38160032498664E-09
      6.38696447332437E-30
      3.35700000000000E-01
      5.03550000000000E+00   5.03550000000000E+00   0.00000000000000E+00   0.00000000000000E+00   1.31027734517030E-09
      1.13710928049343E-10   1.42398827321964E-09  -3.19348223666218E-29   0.00000000000000E+00   0.00000000000000E+00
      0.00000000000000E+00   0.00000000000000E+00  -9.62887833099693E-12  -1.41435939506110E-09  -1.42398827339210E-09
     -2.07092484438093E-29
      3.45700000000000E-01
      5.18550000000000E+00   5.18550000000000E+00   0.00000000000000E+00   0.00000000000000E+00   1.35022228121206E-09
      1.16317502682404E-10   1.46653978389447E-09   2.34188697355227E-29   0.00000000000000E+00   0.00000000000000E+00
      0.00000000000000E+00   0.00000000000000E+00  -9.83906244840190E-12  -1.45670072174344E-09  -1.46653978419184E-09
      3.85153312179257E-29
      3.55700000000000E-01
      5.33550000000000E+00   5.33550000000000E+00   0.00000000000000E+00   0.00000000000000E+00   1.39035828801292E-09
      1.18908387360002E-10   1.50926667537292E-09  -2.04189318768400E-29   0.00000000000000E+00   0.00000000000000E+00
      0.00000000000000E+00   0.00000000000000E+00  -1.00593007342225E-11  -1.49920737501850E-09  -1.50926667575272E-09
      1.62577277502802E-29
      3.65700000000000E-01
      5.48550000000000E+00   5.48550000000000E+00   0.00000000000000E+00   0.00000000000000E+00   1.43069573256829E-09
      1.21484790107341E-10   1.55218052267563E-09   1.45158283484645E-30   0.00000000000000E+00   0.00000000000000E+00
      0.00000000000000E+00   0.00000000000000E+00  -1.02904249896971E-11  -1.54189009805512E-09  -1.55218052304482E-09
      9.09658576503773E-30
      3.75700000000000E-01
      5.63550000000000E+00   5.63550000000000E+00   0.00000000000000E+00   0.00000000000000E+00   1.47124276487749E-09
      1.24047637352738E-10   1.59529040223023E-09  -2.42898194364305E-29   0.00000000000000E+00   0.00000000000000E+00
      0.00000000000000E+00   0.00000000000000E+00  -1.05332812688823E-11  -1.58475712181251E-09  -1.59529040308139E-09
      2.41930472474408E-29
      3.85700000000000E-01
      5.78550000000000E+00   5.78550000000000E+00   0.00000000000000E+00   0.00000000000000E+00   1.51201503176156E-09
      1.26599357151606E-10   1.63861438891317E-09   2.69994407281439E-29   0.00000000000000E+00   0.00000000000000E+00
      0.00000000000000E+00   0.00000000000000E+00  -1.07887959404594E-11  -1.62782559220883E-09  -1.63861438814929E-09
     -2.51607691373384E-30
      3.95700000000000E-01
      5.93550000000000E+00   5.93550000000000E+00   0.00000000000000E+00   0.00000000000000E+00   1.55301823741091E-09
      1.29138542346406E-10   1.68215677975731E-09   1.70319052621983E-29   0.00000000000000E+00   0.00000000000000E+00
      0.00000000000000E+00   0.00000000000000E+00  -1.10578442760168E-11  -1.67109893543113E-09  -1.68215677970715E-09
     -9.48367452099679E-30
      4.05700000000000E-01
      6.08550000000000E+00   6.08550000000000E+00   0.00000000000000E+00   0.00000000000000E+00   1.59426961790854E-09
      1.31668402069878E-10   1.72593801997842E-09  -9.67721889897631E-31   0.00000000000000E+00   0.00000000000000E+00
      0.00000000000000E+00   0.00000000000000E+00  -1.13413563643907E-11  -1.71459666350353E-09  -1.72593801986792E-09
     -2.28382366015841E-29
      4.15700000000000E-01
      6.23550000000000E+00   6.23550000000000E+00   0.00000000000000E+00   0.00000000000000E+00   1.63576440304533E-09
      1.34189053260039E-10   1.76995345630537E-09   5.33214761333595E-29   0.00000000000000E+00   0.00000000000000E+00
      0.00000000000000E+00   0.00000000000000E+00  -1.16403483383474E-11  -1.75831310719908E-09  -1.76995345553743E-09
      1.47093727264440E-29
      4.25700000000000E-01
      6.38550000000000E+00   6.38550000000000E+00   0.00000000000000E+00   0.00000000000000E+00   1.67747429040755E-09
      1.36697820360692E-10   1.81417211076824E-09   1.54835502383621E-29   0.00000000000000E+00   0.00000000000000E+00
      0.00000000000000E+00   0.00000000000000E+00  -1.19559600662253E-11  -1.80221615024052E-09  -1.81417211030675E-09
      2.03221596878503E-29
      4.35700000000000E-01
      6.53550000000000E+00   6.53550000000000E+00   0.00000000000000E+00   0.00000000000000E+00   1.71940791352589E-09
      1.39196436201465E-10   1.85860434972736E-09  -4.58700175811477E-29   0.00000000000000E+00   0.00000000000000E+00
      0.00000000000000E+00   0.00000000000000E+00  -1.22892207865023E-11  -1.84631512868178E-09  -1.85860434946829E-09
      3.94830531078234E-29
      4.45700000000000E-01
      6.68550000000000E+00   6.68550000000000E+00   0.00000000000000E+00   0.00000000000000E+00   1.76161389703973E-09
      1.41688032718419E-10   1.90330192975815E-09   6.77405322928342E-30   0.00000000000000E+00   0.00000000000000E+00
      0.00000000000000E+00   0.00000000000000E+00  -1.26410390258643E-11  -1.89066089059467E-09  -1.90330192962053E-09
     -2.10963371997684E-29
      4.55700000000000E-01
      6.83550000000000E+00   6.83550000000000E+00   0.00000000000000E+00   0.00000000000000E+00   1.80409511260909E-09
      1.44172969179520E-10   1.94826808178861E-09  -6.71598991588956E-29   0.00000000000000E+00   0.00000000000000E+00
      0.00000000000000E+00   0.00000000000000E+00  -1.30125084011920E-11  -1.93525557342781E-09  -1.94826808182900E-09
     -1.85802602860345E-29
      4.65700000000000E-01
      6.98550000000000E+00   6.98550000000000E+00   0.00000000000000E+00   0.00000000000000E+00   1.84685800612110E-09
      1.46651885883159E-10   1.99350989200426E-09  -1.17094348677613E-29   0.00000000000000E+00   0.00000000000000E+00
      0.00000000000000E+00   0.00000000000000E+00  -1.34047312021174E-11  -1.98010516107819E-09  -1.99350989228031E-09
      7.68371180578719E-29
      4.75700000000000E-01
      7.13550000000000E+00   7.13550000000000E+00   0.00000000000000E+00   0.00000000000000E+00   1.88991147507019E-09
      1.49125513803345E-10   2.03903698887354E-09  -5.80633133938579E-31   0.00000000000000E+00   0.00000000000000E+00
      0.00000000000000E+00   0.00000000000000E+00  -1.38188191257994E-11  -2.02521817032671E-09  -2.03903698945251E-09
     -2.38059584914817E-29
      4.85700000000000E-01
      7.28550000000000E+00   7.28550000000000E+00   0.00000000000000E+00   0.00000000000000E+00   1.93326458639639E-09
      1.51594573230626E-10   2.08485915962701E-09   5.69020471259807E-29   0.00000000000000E+00   0.00000000000000E+00
      0.00000000000000E+00   0.00000000000000E+00  -1.42558986293740E-11  -2.07060326188691E-09  -2.08485916051628E-09
      3.50315324142943E-29
      4.95700000000000E-01
      7.43550000000000E+00   7.43550000000000E+00   0.00000000000000E+00   0.00000000000000E+00   1.97692724732091E-09
      1.54059990481232E-10   2.13098723780214E-09  -5.13860323535642E-29   0.00000000000000E+00   0.00000000000000E+00
      0.00000000000000E+00   0.00000000000000E+00  -1.47171161480736E-11  -2.11627012240870E-09  -2.13098723855677E-09
      6.90953429386909E-29
      5.05700000000000E-01
      7.58550000000000E+00   7.58550000000000E+00   0.00000000000000E+00   0.00000000000000E+00   2.02090875849395E-09
      1.56522718366131E-10   2.17743147686008E-09   1.22900680016999E-29   0.00000000000000E+00   0.00000000000000E+00
      0.00000000000000E+00   0.00000000000000E+00  -1.52036183332589E-11  -2.16222785833936E-09  -2.17743147667261E-09
     -4.95473607627587E-29
      5.15700000000000E-01
      7.73550000000000E+00   7.73550000000000E+00   0.00000000000000E+00   0.00000000000000E+00   2.06521785461465E-09
      1.58982550067022E-10   2.22420040468167E-09   4.47087513132706E-29   0.00000000000000E+00   0.00000000000000E+00
      0.00000000000000E+00   0.00000000000000E+00  -1.57165323693378E-11  -2.20848387189892E-09  -2.22420040426825E-09
      5.10957157865949E-29
      5.25700000000000E-01
      7.88550000000000E+00   7.88550000000000E+00   0.00000000000000E+00   0.00000000000000E+00   2.10986545699352E-09
      1.61440936612131E-10   2.27130639360566E-09   3.28057720675297E-29   0.00000000000000E+00   0.00000000000000E+00
      0.00000000000000E+00   0.00000000000000E+00  -1.62570205509782E-11  -2.25504937199077E-09  -2.27130639254174E-09
      4.29668519114548E-29
      5.35700000000000E-01
      8.03550000000000E+00   8.03550000000000E+00   0.00000000000000E+00   0.00000000000000E+00   2.15486196252233E-09
      1.63896641798635E-10   2.31875860432096E-09   3.72572927610588E-29   0.00000000000000E+00   0.00000000000000E+00
      0.00000000000000E+00   0.00000000000000E+00  -1.68261968019622E-11  -2.30193240765045E-09  -2.31875860445241E-09
     -1.23868401906897E-29
      5.45700000000000E-01
      8.18550000000000E+00   8.18550000000000E+00   0.00000000000000E+00   0.00000000000000E+00   2.20021593151805E-09
      1.66353688915629E-10   2.36656962043368E-09   5.41924258342674E-29   0.00000000000000E+00   0.00000000000000E+00
      0.00000000000000E+00   0.00000000000000E+00  -1.74251951874568E-11  -2.34914442456213E-09  -2.36656961974959E-09
      1.16126626787716E-30
      5.55700000000000E-01
      8.33550000000001E+00   8.33550000000001E+00   0.00000000000000E+00   0.00000000000000E+00   2.24594046986932E-09
      1.68809935516025E-10   2.41475040538534E-09   4.22894465885265E-29   0.00000000000000E+00   0.00000000000000E+00
      0.00000000000000E+00   0.00000000000000E+00  -1.80551036895804E-11  -2.39669530091087E-09  -2.41475040460045E-09
      5.69020471259807E-29
      5.65700000000000E-01
      8.48550000000001E+00   8.48550000000001E+00   0.00000000000000E+00   0.00000000000000E+00   2.29204608861164E-09
      1.71266936361860E-10   2.46331302497350E-09  -7.74177511918105E-31   0.00000000000000E+00   0.00000000000000E+00
      0.00000000000000E+00   0.00000000000000E+00  -1.87169881915087E-11  -2.44459603613483E-09  -2.46331302432633E-09
      2.78703904290518E-29
      5.75700000000000E-01
      8.63550000000000E+00   8.63550000000000E+00   0.00000000000000E+00   0.00000000000000E+00   2.33854432091387E-09
      1.73725422756402E-10   2.51226974367027E-09   2.07092484438093E-29   0.00000000000000E+00   0.00000000000000E+00
      0.00000000000000E+00   0.00000000000000E+00  -1.94118726759891E-11  -2.49285787043084E-09  -2.51226974310683E-09
      9.67721889897631E-30
      5.85700000000000E-01
      8.78550000000000E+00   8.78550000000000E+00   0.00000000000000E+00   0.00000000000000E+00   2.38544716270454E-09
      1.76186039146379E-10   2.56163320185091E-09   1.61609555612904E-29   0.00000000000000E+00   0.00000000000000E+00
      0.00000000000000E+00   0.00000000000000E+00  -2.01407318726520E-11  -2.54149246959099E-09  -2.56163320146365E-09
     -6.38696447332437E-29
      5.95700000000000E-01
      8.93550000000000E+00   8.93550000000000E+00   0.00000000000000E+00   0.00000000000000E+00   2.43276703764861E-09
      1.78649447394532E-10   2.61141648504314E-09   5.80633133938579E-31   0.00000000000000E+00   0.00000000000000E+00
      0.00000000000000E+00   0.00000000000000E+00  -2.09044821873576E-11  -2.59051200258640E-09  -2.61141648477375E-09
     -1.18836248079429E-28
      6.05700000000000E-01
      9.08550000000001E+00   9.08550000000001E+00   0.00000000000000E+00   0.00000000000000E+00   2.48051682978166E-09
      1.81116316338596E-10   2.66163314612025E-09  -1.03546242219047E-29   0.00000000000000E+00   0.00000000000000E+00
      0.00000000000000E+00   0.00000000000000E+00  -2.17039715710106E-11  -2.63992917441646E-09  -2.66163314598747E-09
      7.16114198524247E-29
      6.15700000000000E-01
      9.23550000000001E+00   9.23550000000001E+00   0.00000000000000E+00   0.00000000000000E+00   2.52870998161387E-09
      1.83587436323016E-10   2.71229741793688E-09   3.76443815170179E-29   0.00000000000000E+00   0.00000000000000E+00
      0.00000000000000E+00   0.00000000000000E+00  -2.25399721627261E-11  -2.68975744571328E-09  -2.71229741787601E-09
      7.19985086083838E-29
      6.25700000000000E-01
      9.38550000000001E+00   9.38550000000001E+00   0.00000000000000E+00   0.00000000000000E+00   2.57736027465981E-09
      1.86063412794531E-10   2.76342368745434E-09   1.84834880970448E-29   0.00000000000000E+00   0.00000000000000E+00
      0.00000000000000E+00   0.00000000000000E+00  -2.34131605112935E-11  -2.74001052690695E-09  -2.76342368741824E-09
      7.74177511918105E-30
      6.35700000000000E-01
      9.53550000000001E+00   9.53550000000001E+00   0.00000000000000E+00   0.00000000000000E+00   2.62648208253081E-09
      1.88544861993665E-10   2.81502694452447E-09   1.90641212309833E-29   0.00000000000000E+00   0.00000000000000E+00
      0.00000000000000E+00   0.00000000000000E+00  -2.43241131720433E-11  -2.79070283138233E-09  -2.81502694455438E-09
     -2.47736803813794E-29
      6.45700000000000E-01
      9.68550000000001E+00   9.68550000000001E+00   0.00000000000000E+00   0.00000000000000E+00   2.67609031219758E-09
      1.91032505177268E-10   2.86712281737485E-09  -2.88381123189494E-29   0.00000000000000E+00   0.00000000000000E+00
      0.00000000000000E+00   0.00000000000000E+00  -2.52732960811845E-11  -2.84184952144358E-09  -2.86712281752476E-09
     -8.51595263109916E-30
      6.55700000000000E-01
      9.83550000000001E+00   9.83550000000001E+00   0.00000000000000E+00   0.00000000000000E+00   2.72620503155511E-09
      1.93527302976936E-10   2.91973233453205E-09  -7.93531949716058E-30   0.00000000000000E+00   0.00000000000000E+00
      0.00000000000000E+00   0.00000000000000E+00  -2.62610355685625E-11  -2.89347129928096E-09  -2.91973233484952E-09
     -1.23868401906897E-29
      6.65700000000000E-01
      9.98550000000001E+00   9.98550000000001E+00   0.00000000000000E+00   0.00000000000000E+00   2.77685380204505E-09
      1.96030546037482E-10   2.97288434808253E-09   1.29674733246283E-29   0.00000000000000E+00   0.00000000000000E+00
      0.00000000000000E+00   0.00000000000000E+00  -2.72875001210006E-11  -2.94559684841255E-09  -2.97288434853355E-09
      3.29025442565195E-29
      6.75700000000000E-01