DF-ISE text

Info {
  version   = 1.0
  type      = xyplot
  datasets  = [
    "time"
    "ntype OuterVoltage" "ntype InnerVoltage" "ntype QuasiFermiPotential" "ntype DisplacementCurrent" "ntype eCurrent"
    "ntype hCurrent" "ntype TotalCurrent" "ntype Charge" "ptype OuterVoltage" "ptype InnerVoltage"
    "ptype QuasiFermiPotential" "ptype DisplacementCurrent" "ptype eCurrent" "ptype hCurrent" "ptype TotalCurrent"
    "ptype Charge" ]
  functions = [
    Time
    OuterVoltage InnerVoltage QuasiFermiPotential DisplacementCurrent eCurrent
    hCurrent TotalCurrent Charge OuterVoltage InnerVoltage
    QuasiFermiPotential DisplacementCurrent eCurrent hCurrent TotalCurrent
    Charge ]
}

Data {
      0.00000000000000E+00
      0.00000000000000E+00   0.00000000000000E+00   0.00000000000000E+00   0.00000000000000E+00  -2.49259396423433E-24
      3.32858585293590E-17   3.32858560367650E-17   2.63401801906512E-30   0.00000000000000E+00   0.00000000000000E+00
      0.00000000000000E+00   0.00000000000000E+00   1.83980063201242E-28   1.08599623436571E-25   1.08783603499772E-25
     -5.92729657562299E-31
      0.00000000000000E+00
      0.00000000000000E+00   0.00000000000000E+00   0.00000000000000E+00   0.00000000000000E+00  -3.00883168833285E-24
      3.41598451341123E-17   3.41598421252806E-17  -2.42535298655594E-30   0.00000000000000E+00   0.00000000000000E+00
      0.00000000000000E+00   0.00000000000000E+00   4.10480508057933E-29  -4.43371072731585E-25  -4.43330024680779E-25
      2.78220043345569E-31
      0.00000000000000E+00
      0.00000000000000E+00   0.00000000000000E+00   0.00000000000000E+00   0.00000000000000E+00   2.38776076737731E-25
     -1.07853635259771E-18  -1.07853611382163E-18  -4.89909206760676E-31   0.00000000000000E+00   0.00000000000000E+00
      0.00000000000000E+00   0.00000000000000E+00   7.33997560969764E-29  -3.32892920096287E-26  -3.32158922535317E-26
     -7.86274035541826E-31
      6.25000000000000E-04
      6.25000000000000E-02   6.25000000000000E-02   0.00000000000000E+00   0.00000000000000E+00   1.05499889928639E-12
      1.61232509090379E-15   1.05661122437730E-12  -1.70258570003865E-30   0.00000000000000E+00   0.00000000000000E+00
      0.00000000000000E+00   0.00000000000000E+00  -7.72063200477259E-14  -9.79405759741262E-13  -1.05661207978899E-12
      1.54230676202435E-31
      1.58333333333333E-03
      1.58333333333333E-01   1.58333333333333E-01   0.00000000000000E+00   0.00000000000000E+00   1.19512393585372E-11
      1.87394511358790E-14   1.19699788096731E-11   2.07152967056212E-30   0.00000000000000E+00   0.00000000000000E+00
      0.00000000000000E+00   0.00000000000000E+00  -7.79360924125184E-13  -1.11906182957301E-11  -1.19699792198553E-11
     -4.34718817727452E-33
      3.37222222222222E-03
      3.37222222222222E-01   3.37222222222222E-01   0.00000000000000E+00   0.00000000000000E+00   7.30065755167935E-11
      1.12615422294818E-13   7.31191909390884E-11  -3.60173990896275E-30   0.00000000000000E+00   0.00000000000000E+00
      0.00000000000000E+00   0.00000000000000E+00  -2.88345309534386E-12  -7.02357383052546E-11  -7.31191914005985E-11
      2.66123519721849E-31
      6.47296296296296E-03
      6.47296296296296E-01   6.47296296296296E-01   0.00000000000000E+00   0.00000000000000E+00   1.86199166437969E-10
      2.49410541591814E-13   1.86448576979560E-10  -2.20761556132897E-31   0.00000000000000E+00   0.00000000000000E+00
      0.00000000000000E+00   0.00000000000000E+00  -4.40451179091471E-12  -1.82044065076705E-10  -1.86448576867619E-10
     -2.83058652795057E-30
      1.18475802469136E-02
      1.18475802469136E+00   1.18475802469136E+00   0.00000000000000E+00   0.00000000000000E+00   3.68036118768883E-10
      3.79953883825762E-13   3.68416072652709E-10  -1.20965236237204E-30   0.00000000000000E+00   0.00000000000000E+00
      0.00000000000000E+00   0.00000000000000E+00  -5.49726223093538E-12  -3.62918810409922E-10  -3.68416072640857E-10
      4.20959022105470E-30
      2.15218913580247E-02
      2.15218913580247E+00   2.15218913580247E+00   0.00000000000000E+00   0.00000000000000E+00   6.68940571367410E-10
      4.78647220351615E-13   6.69419218587762E-10   8.08350191155115E-30   0.00000000000000E+00   0.00000000000000E+00
      0.00000000000000E+00   0.00000000000000E+00  -6.59241112294331E-12  -6.62826807364495E-10  -6.69419218487438E-10
     -1.16126626787716E-30
      3.15218913580247E-02
      3.15218913580247E+00   3.15218913580247E+00   0.00000000000000E+00   0.00000000000000E+00   9.63925543493210E-10
      5.70820479119087E-13   9.64496363972329E-10  -2.05338488512654E-30   0.00000000000000E+00   0.00000000000000E+00
      0.00000000000000E+00   0.00000000000000E+00  -7.53146501935550E-12  -9.56964899001357E-10  -9.64496364020712E-10
     -7.93531949716058E-30
      3.65218913580247E-02
      3.65218913580247E+00   3.65218913580247E+00   0.00000000000000E+00   0.00000000000000E+00   1.10901596871654E-09
      6.29744033540407E-13   1.10964571275008E-09  -2.25902578672978E-30   0.00000000000000E+00   0.00000000000000E+00
      0.00000000000000E+00   0.00000000000000E+00  -8.00733715897985E-12  -1.10163837569104E-09  -1.10964571285002E-09
      4.35474850453934E-30
      4.45218913580247E-02
      4.45218913580247E+00   4.45218913580247E+00   0.00000000000000E+00   0.00000000000000E+00   1.34044973362392E-09
      7.53276281194520E-13   1.34120300990511E-09   3.82552559600157E-30   0.00000000000000E+00   0.00000000000000E+00
      0.00000000000000E+00   0.00000000000000E+00  -8.83904327130440E-12  -1.33236396687892E-09  -1.34120301015023E-09
     -3.29025442565195E-30
      4.57718913580247E-02
      4.57718913580247E+00   4.57718913580247E+00   0.00000000000000E+00   0.00000000000000E+00   1.37666346762592E-09
      7.76984205766639E-13   1.37744045183169E-09   4.71159595143909E-30   0.00000000000000E+00   0.00000000000000E+00
      0.00000000000000E+00   0.00000000000000E+00  -8.98143559206465E-12  -1.36845901658033E-09  -1.37744045217240E-09
      3.87088755959053E-31
      4.80218913580247E-02
      4.80218913580247E+00   4.80218913580247E+00   0.00000000000000E+00   0.00000000000000E+00   1.44194430560348E-09
      8.23547379165567E-13   1.44276785298264E-09  -4.60272723882561E-30   0.00000000000000E+00   0.00000000000000E+00
      0.00000000000000E+00   0.00000000000000E+00  -9.24909386346174E-12  -1.43351875932450E-09  -1.44276785318797E-09
     -1.35481064585668E-30
      5.01968913580247E-02
      5.01968913580247E+00   5.01968913580247E+00   0.00000000000000E+00   0.00000000000000E+00   1.50520548209719E-09
      8.73917785849597E-13   1.50607939988304E-09  -4.55131701342480E-30   0.00000000000000E+00   0.00000000000000E+00
      0.00000000000000E+00   0.00000000000000E+00  -9.52362162778233E-12  -1.49655577855829E-09  -1.50607940018608E-09
     -2.65155797831951E-29
      5.44018913580247E-02
      5.44018913580247E+00   5.44018913580247E+00   0.00000000000000E+00   0.00000000000000E+00   1.62809495904226E-09
      9.90113727505718E-13   1.62908507276976E-09   1.20662823146611E-30   0.00000000000000E+00   0.00000000000000E+00
      0.00000000000000E+00   0.00000000000000E+00  -1.01069968612279E-11  -1.61897807571548E-09  -1.62908507257671E-09
     -1.06449407888739E-29
      5.80462246913580E-02
      5.80462246913580E+00   5.80462246913580E+00   0.00000000000000E+00   0.00000000000000E+00   1.73540061474033E-09
      1.11528452456433E-12   1.73651589926489E-09  -2.87897262244545E-30   0.00000000000000E+00   0.00000000000000E+00
      0.00000000000000E+00   0.00000000000000E+00  -1.06801595872122E-11  -1.72583573979132E-09  -1.73651589937853E-09
      1.10320295448330E-29
      6.41201135802469E-02
      6.41201135802469E+00   6.41201135802469E+00   0.00000000000000E+00   0.00000000000000E+00   1.91625499707083E-09
      1.40137537248653E-12   1.91765637244332E-09   9.73770151709491E-31   0.00000000000000E+00   0.00000000000000E+00
      0.00000000000000E+00   0.00000000000000E+00  -1.18115639806216E-11  -1.90584480867294E-09  -1.91765637265357E-09
      8.51595263109916E-30
      7.41201135802469E-02
      7.41201135802469E+00   7.41201135802469E+00   0.00000000000000E+00   0.00000000000000E+00   2.22071508382650E-09
      2.26448799159275E-12   2.22297957181809E-09   6.07547899001357E-30   0.00000000000000E+00   0.00000000000000E+00
      0.00000000000000E+00   0.00000000000000E+00  -1.43130830414168E-11  -2.20866648893779E-09  -2.22297957197920E-09
      2.84510235629904E-29
      7.66201135802469E-02
      7.66201135802469E+00   7.66201135802469E+00   0.00000000000000E+00   0.00000000000000E+00   2.29840185111043E-09
      2.61991128547097E-12   2.30102176239590E-09  -2.08211412873287E-30   0.00000000000000E+00   0.00000000000000E+00
      0.00000000000000E+00   0.00000000000000E+00  -1.50940458319732E-11  -2.28592771651275E-09  -2.30102176234473E-09
      3.15477336106628E-29
      8.11201135802469E-02
      8.11201135802469E+00   8.11201135802469E+00   0.00000000000000E+00   0.00000000000000E+00   2.44000054195996E-09
      3.51199348982343E-12   2.44351253544978E-09   5.03064176201472E-30   0.00000000000000E+00   0.00000000000000E+00
      0.00000000000000E+00   0.00000000000000E+00  -1.66874425850298E-11  -2.42682509283643E-09  -2.44351253542146E-09
      1.16126626787716E-29
      8.29951135802469E-02
      8.29951135802469E+00   8.29951135802469E+00   0.00000000000000E+00   0.00000000000000E+00   2.49969851648755E-09
      4.01687225688195E-12   2.50371538874444E-09  -5.42831497614453E-31   0.00000000000000E+00   0.00000000000000E+00
      0.00000000000000E+00   0.00000000000000E+00  -1.74288113378525E-11  -2.48628657774476E-09  -2.50371538908261E-09
      6.11600234415303E-29
      8.63701135802469E-02
      8.63701135802469E+00   8.63701135802469E+00   0.00000000000000E+00   0.00000000000000E+00   2.60822741396621E-09
      5.21177128585459E-12   2.61343918525207E-09   7.31990885780380E-30   0.00000000000000E+00   0.00000000000000E+00
      0.00000000000000E+00   0.00000000000000E+00  -1.88882034154581E-11  -2.59455098221729E-09  -2.61343918563275E-09
     -5.34182483223492E-29
      8.91826135802469E-02
      8.91826135802469E+00   8.91826135802469E+00   0.00000000000000E+00   0.00000000000000E+00   2.69973622950007E-09
      6.58749145888075E-12   2.70632372095895E-09   3.32956812742904E-30   0.00000000000000E+00   0.00000000000000E+00
      0.00000000000000E+00   0.00000000000000E+00  -2.02350142922544E-11  -2.68608870675497E-09  -2.70632372104723E-09
      2.94187454528880E-29
      9.14326135802469E-02
      9.14326135802469E+00   9.14326135802469E+00   0.00000000000000E+00   0.00000000000000E+00   2.77364048421970E-09
      8.02419039237839E-12   2.78166467461208E-09   5.20604135455866E-30   0.00000000000000E+00   0.00000000000000E+00
      0.00000000000000E+00   0.00000000000000E+00  -2.14031650559213E-11  -2.76026150949789E-09  -2.78166467455381E-09
      6.92888873166704E-29
      9.33826135802469E-02
      9.33826135802469E+00   9.33826135802469E+00   0.00000000000000E+00   0.00000000000000E+00   2.83818222587292E-09
      9.57686439627220E-12   2.84775909026919E-09   4.69798736236241E-30   0.00000000000000E+00   0.00000000000000E+00
      0.00000000000000E+00   0.00000000000000E+00  -2.24836453917657E-11  -2.82527544508114E-09  -2.84775909047291E-09
      2.98058342088470E-29
      9.51376135802469E-02
      9.51376135802469E+00   9.51376135802469E+00   0.00000000000000E+00   0.00000000000000E+00   2.89666442495578E-09
      1.12739264096026E-11   2.90793835136538E-09   5.51903890332243E-30   0.00000000000000E+00   0.00000000000000E+00
      0.00000000000000E+00   0.00000000000000E+00  -2.35118069506157E-11  -2.88442654430507E-09  -2.90793835125569E-09
      2.24511478456250E-29
      9.67756135802469E-02
      9.67756135802470E+00   9.67756135802470E+00   0.00000000000000E+00   0.00000000000000E+00   2.95154925244429E-09
      1.31603518791106E-11   2.96470960432340E-09   1.55137915474214E-30   0.00000000000000E+00   0.00000000000000E+00
      0.00000000000000E+00   0.00000000000000E+00  -2.45203033287047E-11  -2.94018930086972E-09  -2.96470960419842E-09
      6.30954672213256E-29
      9.83044135802469E-02
      9.83044135802469E+00   9.83044135802469E+00   0.00000000000000E+00   0.00000000000000E+00   3.00297350929539E-09
      1.52276637618140E-11   3.01820117305720E-09  -4.48781026440027E-30   0.00000000000000E+00   0.00000000000000E+00
      0.00000000000000E+00   0.00000000000000E+00  -2.55051247031518E-11  -2.99269604817989E-09  -3.01820117288304E-09
     -2.74833016730927E-29
      9.97312935802469E-02
      9.97312935802469E+00   9.97312935802469E+00   0.00000000000000E+00   0.00000000000000E+00   3.05110056496453E-09
      1.74626197809292E-11   3.06856318474546E-09  -6.21761314259228E-30   0.00000000000000E+00   0.00000000000000E+00
      0.00000000000000E+00   0.00000000000000E+00  -2.64628819980715E-11  -3.04210030259376E-09  -3.06856318459183E-09
     -8.51595263109916E-30
      1.01063048246914E-01
      1.01063048246914E+01   1.01063048246914E+01   0.00000000000000E+00   0.00000000000000E+00   3.09611852031555E-09
      1.98485251847755E-11   3.11596704550032E-09   8.19539475507057E-31   0.00000000000000E+00   0.00000000000000E+00
      0.00000000000000E+00   0.00000000000000E+00  -2.73907622124552E-11  -3.08857628313350E-09  -3.11596704534595E-09
     -2.16769703337069E-29
      1.03548990291358E-01
      1.03548990291358E+01   1.03548990291358E+01   0.00000000000000E+00   0.00000000000000E+00   3.18044603692590E-09
      2.51940069763564E-11   3.20564004390225E-09  -3.62290882530426E-30   0.00000000000000E+00   0.00000000000000E+00
      0.00000000000000E+00   0.00000000000000E+00  -2.92109955665365E-11  -3.17642904806272E-09  -3.20564004362926E-09
     -6.19342009534484E-29
      1.04626231843951E-01
      1.04626231843951E+01   1.04626231843951E+01   0.00000000000000E+00   0.00000000000000E+00   3.21710625273849E-09
      2.79176601301080E-11   3.24502391286860E-09  -3.48682293453740E-30   0.00000000000000E+00   0.00000000000000E+00
      0.00000000000000E+00   0.00000000000000E+00  -3.00354887781479E-11  -3.21498842391922E-09  -3.24502391269737E-09
     -8.90304138705821E-30
      1.06637082742123E-01
      1.06637082742123E+01   1.06637082742123E+01   0.00000000000000E+00   0.00000000000000E+00   3.28566121344778E-09
      3.37520453810672E-11   3.31941325882885E-09  -5.16975178368750E-30   0.00000000000000E+00   0.00000000000000E+00
      0.00000000000000E+00   0.00000000000000E+00  -3.16323442075129E-11  -3.28778091446641E-09  -3.31941325867392E-09
     -1.27739289466487E-29
      1.08513876913751E-01
      1.08513876913751E+01   1.08513876913751E+01   0.00000000000000E+00   0.00000000000000E+00   3.34974271002341E-09
      4.01772753496591E-11   3.38991998537307E-09   9.57288638272172E-30   0.00000000000000E+00   0.00000000000000E+00
      0.00000000000000E+00   0.00000000000000E+00  -3.31901910746612E-11  -3.35672979419628E-09  -3.38991998527094E-09
      1.47093727264440E-29
      1.10202991668217E-01
      1.10202991668217E+01   1.10202991668217E+01   0.00000000000000E+00   0.00000000000000E+00   3.40745253425217E-09
      4.68620224088770E-11   3.45431455666105E-09   3.88600821412018E-30   0.00000000000000E+00   0.00000000000000E+00
      0.00000000000000E+00   0.00000000000000E+00  -3.46471502897427E-11  -3.41966740625510E-09  -3.45431455654484E-09
     -5.57407808581036E-29
      1.11779498772384E-01
      1.11779498772384E+01   1.11779498772384E+01   0.00000000000000E+00   0.00000000000000E+00   3.46131332396701E-09
      5.39460207302447E-11   3.51525934469726E-09  -7.40912071952874E-31   0.00000000000000E+00   0.00000000000000E+00
      0.00000000000000E+00   0.00000000000000E+00  -3.60529693821321E-11  -3.47920637494385E-09  -3.51525934432598E-09
     -7.16114198524247E-29
      1.13250905402941E-01
      1.13250905402941E+01   1.13250905402941E+01   0.00000000000000E+00   0.00000000000000E+00   3.51156023180991E-09
      6.13493526677376E-11   3.57290958447764E-09  -1.58162046380144E-30   0.00000000000000E+00   0.00000000000000E+00
      0.00000000000000E+00   0.00000000000000E+00  -3.74041322893120E-11  -3.53550545223638E-09  -3.57290958452569E-09
      2.32253253575432E-29
      1.14575171370441E-01
      1.14575171370441E+01   1.14575171370441E+01   0.00000000000000E+00   0.00000000000000E+00   3.55674633950979E-09
      6.87103597128093E-11   3.62545669922260E-09  -1.15869575660712E-29   0.00000000000000E+00   0.00000000000000E+00
      0.00000000000000E+00   0.00000000000000E+00  -3.86515029936315E-11  -3.58680519626505E-09  -3.62545669925868E-09
      4.29668519114548E-29
      1.15767010741192E-01
      1.15767010741192E+01   1.15767010741192E+01   0.00000000000000E+00   0.00000000000000E+00   3.59737598107633E-09
      7.59301568547738E-11   3.67330613793111E-09  -4.11130596661197E-30   0.00000000000000E+00   0.00000000000000E+00
      0.00000000000000E+00   0.00000000000000E+00  -3.97987025668465E-11  -3.63350743514452E-09  -3.67330613771137E-09
      2.47736803813794E-29
      1.16879394153892E-01
      1.16879394153892E+01   1.16879394153892E+01   0.00000000000000E+00   0.00000000000000E+00   3.63526348308593E-09
      8.31975149564299E-11   3.71846099804236E-09  -9.25988883395796E-30   0.00000000000000E+00   0.00000000000000E+00
      0.00000000000000E+00   0.00000000000000E+00  -4.08896955721001E-11  -3.67757130230838E-09  -3.71846099788048E-09
      2.63220354052156E-29
      1.18955843190934E-01
      1.18955843190934E+01   1.18955843190934E+01   0.00000000000000E+00   0.00000000000000E+00   3.70590728397712E-09
      9.81933693121630E-11   3.80410065328929E-09  -7.79469741003483E-30   0.00000000000000E+00   0.00000000000000E+00
      0.00000000000000E+00   0.00000000000000E+00  -4.29760090764247E-11  -3.76112464399606E-09  -3.80410065307248E-09
      1.62577277502802E-29
      1.19890245257602E-01
      1.19890245257602E+01   1.19890245257602E+01   0.00000000000000E+00   0.00000000000000E+00   3.73765112248459E-09
      1.05570939300536E-10   3.84322206178513E-09   2.36638243389030E-30   0.00000000000000E+00   0.00000000000000E+00
      0.00000000000000E+00   0.00000000000000E+00  -4.39349233540560E-11  -3.79928713814525E-09  -3.84322206149931E-09
      6.58050885130389E-29
      1.21634462448717E-01
      1.21634462448717E+01   1.21634462448717E+01   0.00000000000000E+00   0.00000000000000E+00   3.79681032502149E-09
      1.20422688618228E-10   3.91723301363972E-09   1.27467117684954E-30   0.00000000000000E+00   0.00000000000000E+00
      0.00000000000000E+00   0.00000000000000E+00  -4.57559291542240E-11  -3.87147708453957E-09  -3.91723301369379E-09
      2.47736803813794E-29
      1.23204257920720E-01
      1.23204257920720E+01   1.23204257920720E+01   0.00000000000000E+00   0.00000000000000E+00   3.84993885320699E-09
      1.35023147679306E-10   3.98496200088629E-09  -7.51496530123629E-31   0.00000000000000E+00   0.00000000000000E+00
      0.00000000000000E+00   0.00000000000000E+00  -4.74268097305072E-11  -3.93753519122593E-09  -3.98496200095644E-09
      3.59992543041919E-29
      1.24617073845522E-01
      1.24617073845522E+01   1.24617073845522E+01   0.00000000000000E+00   0.00000000000000E+00   3.89767455671539E-09
      1.49183994402361E-10   4.04685855111775E-09  -9.25081644124017E-30   0.00000000000000E+00   0.00000000000000E+00
      0.00000000000000E+00   0.00000000000000E+00  -4.89539251573921E-11  -3.99790462600357E-09  -4.04685855116096E-09
     -1.85802602860345E-29
      1.25888608177845E-01
      1.25888608177845E+01   1.25888608177845E+01   0.00000000000000E+00   0.00000000000000E+00   3.94059919440622E-09
      1.62767163392719E-10   4.10336635779894E-09  -1.01988814802493E-29   0.00000000000000E+00   0.00000000000000E+00
      0.00000000000000E+00   0.00000000000000E+00  -5.03451324255485E-11  -4.05302122542947E-09  -4.10336635785502E-09
      7.35468636322200E-29
      1.27032989076935E-01
      1.27032989076935E+01   1.27032989076935E+01   0.00000000000000E+00   0.00000000000000E+00   3.97923343909712E-09
      1.75677942669396E-10   4.15491138176652E-09   4.87187488945339E-30   0.00000000000000E+00   0.00000000000000E+00
      0.00000000000000E+00   0.00000000000000E+00  -5.16091606808450E-11  -4.10330222086736E-09  -4.15491138154821E-09
     -2.39995028694613E-29
      1.29169166755237E-01
      1.29169166755237E+01   1.29169166755237E+01   0.00000000000000E+00   0.00000000000000E+00   4.05148112236850E-09
      2.01526227921776E-10   4.25300735029028E-09   5.16975178368750E-30   0.00000000000000E+00   0.00000000000000E+00
      0.00000000000000E+00   0.00000000000000E+00  -5.39935107834516E-11  -4.19901383913193E-09  -4.25300734991538E-09
      4.29668519114548E-29
      1.31162932588319E-01
      1.31162932588319E+01   1.31162932588319E+01   0.00000000000000E+00   0.00000000000000E+00   4.11916373359292E-09
      2.27707345874224E-10   4.34687107946715E-09  -8.36172195489672E-31   0.00000000000000E+00   0.00000000000000E+00
      0.00000000000000E+00   0.00000000000000E+00  -5.62398759340573E-11  -4.29063120340862E-09  -4.34687107934268E-09
     -8.16757275073601E-29
      1.32957321838092E-01
      1.32957321838092E+01   1.32957321838092E+01   0.00000000000000E+00   0.00000000000000E+00   4.18041890479648E-09
      2.52961624456775E-10   4.43338052925325E-09  -4.24587979192586E-30   0.00000000000000E+00   0.00000000000000E+00
      0.00000000000000E+00   0.00000000000000E+00  -5.82709504088200E-11  -4.37510957890729E-09  -4.43338052931611E-09
      5.92245796617350E-29
      1.34572272162888E-01
      1.34572272162888E+01   1.34572272162888E+01   0.00000000000000E+00   0.00000000000000E+00   4.23593012522083E-09
      2.77048953494597E-10   4.51297907871543E-09   1.82203887082288E-30   0.00000000000000E+00   0.00000000000000E+00
      0.00000000000000E+00   0.00000000000000E+00  -6.01010898214766E-11  -4.45287798895323E-09  -4.51297907877471E-09
     -4.79990057389225E-29
      1.36025727455205E-01
      1.36025727455205E+01   1.36025727455205E+01   0.00000000000000E+00   0.00000000000000E+00   4.28627924455035E-09
      2.99815593511312E-10   4.58609483806166E-09  -4.38801394450457E-30   0.00000000000000E+00   0.00000000000000E+00
      0.00000000000000E+00   0.00000000000000E+00  -6.17456394541561E-11  -4.52434919865287E-09  -4.58609483810702E-09
      2.67091241611746E-29
      1.37333837218290E-01
      1.37333837218290E+01   1.37333837218290E+01   0.00000000000000E+00   0.00000000000000E+00   4.33196698519025E-09
      3.21176516055321E-10   4.65314350124557E-09   3.94649083223878E-31   0.00000000000000E+00   0.00000000000000E+00
      0.00000000000000E+00   0.00000000000000E+00  -6.32200896190561E-11  -4.58992341132879E-09  -4.65314350094785E-09
     -7.58693961679743E-29
      1.39775642109381E-01
      1.39775642109381E+01   1.39775642109381E+01   0.00000000000000E+00   0.00000000000000E+00   4.41841843029096E-09
      3.63218759391145E-10   4.78163718968211E-09  -3.21616321845666E-30   0.00000000000000E+00   0.00000000000000E+00
      0.00000000000000E+00   0.00000000000000E+00  -6.59458641996191E-11  -4.71569132554671E-09  -4.78163718974633E-09
      4.68377394710454E-29
      1.41973266511364E-01
      1.41973266511364E+01   1.41973266511364E+01   0.00000000000000E+00   0.00000000000000E+00   4.49789614046415E-09
      4.03427104011948E-10   4.90132324447610E-09  -1.00703559167472E-30   0.00000000000000E+00   0.00000000000000E+00
      0.00000000000000E+00   0.00000000000000E+00  -6.83516011558315E-11  -4.83297164336962E-09  -4.90132324452545E-09
     -1.45932460996563E-28
      1.43951128473148E-01
      1.43951128473148E+01   1.43951128473148E+01   0.00000000000000E+00   0.00000000000000E+00   4.57123277175520E-09
      4.41495228541122E-10   5.01272800029632E-09  -1.61533952340256E-29   0.00000000000000E+00   0.00000000000000E+00
      0.00000000000000E+00   0.00000000000000E+00  -7.04620467145469E-11  -4.94226595365345E-09  -5.01272800036799E-09
     -7.35468636322200E-30
      1.45731204238754E-01
      1.45731204238754E+01   1.45731204238754E+01   0.00000000000000E+00   0.00000000000000E+00   4.63906334191215E-09
      4.77253142071253E-10   5.11631648398340E-09   6.11630475724362E-30   0.00000000000000E+00   0.00000000000000E+00
      0.00000000000000E+00   0.00000000000000E+00  -7.23087310504063E-11  -5.04400775299529E-09  -5.11631648404569E-09
     -1.47480816020399E-28
      1.48935340616845E-01
      1.48935340616845E+01   1.48935340616845E+01   0.00000000000000E+00   0.00000000000000E+00   4.76652914215845E-09
      5.45118363271499E-10   5.31164750542994E-09  -4.77510270046362E-30   0.00000000000000E+00   0.00000000000000E+00
      0.00000000000000E+00   0.00000000000000E+00  -7.54892670017335E-11  -5.23615823854633E-09  -5.31164750554806E-09
     -2.45414271278039E-28
      1.51285040627445E-01
      1.51285040627445E+01   1.51285040627445E+01   0.00000000000000E+00   0.00000000000000E+00   4.86532173560815E-09
      5.97693731794038E-10   5.46301546740219E-09   6.19946835715670E-32   0.00000000000000E+00   0.00000000000000E+00
      0.00000000000000E+00   0.00000000000000E+00  -7.76886282111659E-11  -5.38532683920577E-09  -5.46301546741694E-09
      5.41924258342674E-30
      1.53399770636985E-01
      1.53399770636985E+01   1.53399770636985E+01   0.00000000000000E+00   0.00000000000000E+00   4.95892009999282E-09
      6.47014802103357E-10   5.60593490209618E-09   6.49885731684378E-30   0.00000000000000E+00   0.00000000000000E+00
      0.00000000000000E+00   0.00000000000000E+00  -7.95777642191384E-11  -5.52635713785875E-09  -5.60593490207789E-09
     -2.94187454528880E-29
      1.57206284654156E-01
      1.57206284654156E+01   1.57206284654156E+01   0.00000000000000E+00   0.00000000000000E+00   5.14115749493303E-09
      7.40548645981604E-10   5.88170614091464E-09   8.16515344601126E-32   0.00000000000000E+00   0.00000000000000E+00
      0.00000000000000E+00   0.00000000000000E+00  -8.27674076465363E-11  -5.79893873318928E-09  -5.88170614083582E-09
     -7.66435736798924E-29
      1.60378379668466E-01
      1.60378379668466E+01   1.60378379668466E+01   0.00000000000000E+00   0.00000000000000E+00   5.30968898210507E-09
      8.23182243139838E-10   6.13287122524491E-09   5.79272275030910E-30   0.00000000000000E+00   0.00000000000000E+00
      0.00000000000000E+00   0.00000000000000E+00  -8.53365567332724E-11  -6.04753466865496E-09  -6.13287122538823E-09
      6.19342009534484E-29
      1.65453731691362E-01
      1.65453731691362E+01   1.65453731691362E+01   0.00000000000000E+00   0.00000000000000E+00   5.61936640270884E-09
      9.64426718721016E-10   6.58379312142986E-09  -5.62941968138888E-30   0.00000000000000E+00   0.00000000000000E+00
      0.00000000000000E+00   0.00000000000000E+00  -8.89184372835677E-11  -6.49487468391873E-09  -6.58379312120230E-09
     -1.46319549752522E-28
      1.68668121305862E-01
      1.68668121305862E+01   1.68668121305862E+01   0.00000000000000E+00   0.00000000000000E+00   5.84812341011449E-09
      1.05991136472024E-09   6.90803477483473E-09  -3.80284461420710E-30   0.00000000000000E+00   0.00000000000000E+00
      0.00000000000000E+00   0.00000000000000E+00  -9.11034037832358E-11  -6.81693137084043E-09  -6.90803477462367E-09
      1.60254744967048E-28
      1.72311096202296E-01
      1.72311096202296E+01   1.72311096202296E+01   0.00000000000000E+00   0.00000000000000E+00   6.14647480229551E-09
      1.17421485053007E-09   7.32068965282559E-09  -3.60325197441571E-30   0.00000000000000E+00   0.00000000000000E+00
      0.00000000000000E+00   0.00000000000000E+00  -9.34348883515734E-11  -7.22725476425170E-09  -7.32068965260327E-09
      1.08384851668535E-28
      1.74132583650513E-01
      1.74132583650513E+01   1.74132583650513E+01   0.00000000000000E+00   0.00000000000000E+00   6.31459698500110E-09
      1.23399580853509E-09   7.54859279353618E-09  -1.36085890766854E-32   0.00000000000000E+00   0.00000000000000E+00
      0.00000000000000E+00   0.00000000000000E+00  -9.48007082385938E-11  -7.45379208547355E-09  -7.54859279371214E-09
      3.71605205720690E-29
      1.76318368588373E-01
      1.76318368588373E+01   1.76318368588373E+01   0.00000000000000E+00   0.00000000000000E+00   6.53553376222940E-09
      1.30820890947318E-09   7.84374267170258E-09  -1.82491179518352E-29   0.00000000000000E+00   0.00000000000000E+00
      0.00000000000000E+00   0.00000000000000E+00  -9.60903557944737E-11  -7.74765231608766E-09  -7.84374267188214E-09
     -1.30061822002242E-28
      1.79378467501378E-01
      1.79378467501378E+01   1.79378467501378E+01   0.00000000000000E+00   0.00000000000000E+00   6.88647243602287E-09
      1.41709083159226E-09   8.30356326761513E-09  -9.82842544427282E-31   0.00000000000000E+00   0.00000000000000E+00
      0.00000000000000E+00   0.00000000000000E+00  -9.77520545667251E-11  -8.20581121317728E-09  -8.30356326774401E-09
      1.20771691859224E-28
      1.80398500472379E-01
      1.80398500472379E+01   1.80398500472379E+01   0.00000000000000E+00   0.00000000000000E+00   7.01579381879397E-09
      1.45478776374561E-09   8.47058158253957E-09   9.86471501514398E-30   0.00000000000000E+00   0.00000000000000E+00
      0.00000000000000E+00   0.00000000000000E+00  -9.81865111102752E-11  -8.37239507138863E-09  -8.47058158249890E-09
     -5.80633133938579E-29
      1.80585506517063E-01
      1.80585506517063E+01   1.80585506517063E+01   0.00000000000000E+00   0.00000000000000E+00   7.04028921714636E-09
      1.46178347263924E-09   8.50207268978560E-09  -5.54776814692876E-30   0.00000000000000E+00   0.00000000000000E+00
      0.00000000000000E+00   0.00000000000000E+00  -9.83157302365663E-11  -8.40375695956854E-09  -8.50207268980510E-09
     -5.57407808581036E-29
}
