DF-ISE text

Info {
  version   = 1.0
  type      = xyplot
  datasets  = [
    "time"
    "ntype OuterVoltage" "ntype InnerVoltage" "ntype QuasiFermiPotential" "ntype DisplacementCurrent" "ntype eCurrent"
    "ntype hCurrent" "ntype TotalCurrent" "ntype Charge" "ptype OuterVoltage" "ptype InnerVoltage"
    "ptype QuasiFermiPotential" "ptype DisplacementCurrent" "ptype eCurrent" "ptype hCurrent" "ptype TotalCurrent"
    "ptype Charge" ]
  functions = [
    Time
    OuterVoltage InnerVoltage QuasiFermiPotential DisplacementCurrent eCurrent
    hCurrent TotalCurrent Charge OuterVoltage InnerVoltage
    QuasiFermiPotential DisplacementCurrent eCurrent hCurrent TotalCurrent
    Charge ]
}

Data {
      0.00000000000000E+00
      0.00000000000000E+00   0.00000000000000E+00   0.00000000000000E+00   0.00000000000000E+00  -3.86886862471550E-24
      3.86886861827382E-24  -6.44167632038402E-33   7.45145855221176E-30   0.00000000000000E+00   0.00000000000000E+00
      0.00000000000000E+00   0.00000000000000E+00   4.23194733475567E-29  -3.40495035647666E-24  -3.40490803700331E-24
      8.22563606412987E-31
      0.00000000000000E+00
      0.00000000000000E+00   0.00000000000000E+00   0.00000000000000E+00   0.00000000000000E+00  -9.15071777292376E-25
      9.13807537457850E-25  -1.26423983452569E-27  -3.48379880363147E-30   0.00000000000000E+00   0.00000000000000E+00
      0.00000000000000E+00   0.00000000000000E+00  -7.55282731933850E-29  -3.39497589118433E-24  -3.39505141945753E-24
      6.77405322928342E-31
      0.00000000000000E+00
      0.00000000000000E+00   0.00000000000000E+00   0.00000000000000E+00   0.00000000000000E+00  -8.00055609070689E-25
      7.99761192986185E-25  -2.94416084504715E-28  -2.49672247593589E-29   0.00000000000000E+00   0.00000000000000E+00
      0.00000000000000E+00   0.00000000000000E+00   3.00160680707206E-29  -1.44438660253674E-26  -1.44138499572967E-26
     -6.16922704809740E-31
      1.00000000000000E-02
      2.00000000000000E-02   2.00000000000000E-02   0.00000000000000E+00   0.00000000000000E+00   1.47865814902832E-13
      1.95843170732068E-14   1.67450131976039E-13  -1.74189940181574E-30   0.00000000000000E+00   0.00000000000000E+00
      0.00000000000000E+00   0.00000000000000E+00  -1.35066587628614E-14  -1.53943228764205E-13  -1.67449887527066E-13
      1.03425276982809E-30
      2.00000000000000E-02
      4.00000000000000E-02   4.00000000000000E-02   0.00000000000000E+00   0.00000000000000E+00   4.04454364290454E-13
      5.34893897788031E-14   4.57943754069258E-13   1.45158283484645E-30   0.00000000000000E+00   0.00000000000000E+00
      0.00000000000000E+00   0.00000000000000E+00  -3.66340241724229E-14  -4.21309665246635E-13  -4.57943689419058E-13
      5.47367693973348E-31
      3.00000000000000E-02
      6.00000000000000E-02   6.00000000000000E-02   0.00000000000000E+00   0.00000000000000E+00   8.45664878851674E-13
      1.11812018901171E-13   9.57476897752845E-13   2.07092484438093E-29   0.00000000000000E+00   0.00000000000000E+00
      0.00000000000000E+00   0.00000000000000E+00  -7.59498243210348E-14  -8.81526767480583E-13  -9.57476591801618E-13
     -1.81447854355806E-32
      4.00000000000000E-02
      8.00000000000000E-02   8.00000000000000E-02   0.00000000000000E+00   0.00000000000000E+00   1.58341834914283E-12
      2.09271896880166E-13   1.79269024602299E-12   2.19672869006762E-29   0.00000000000000E+00   0.00000000000000E+00
      0.00000000000000E+00   0.00000000000000E+00  -1.40729448869505E-13  -1.65196068663902E-12  -1.79269013550852E-12
     -1.05844581707553E-31
      5.00000000000000E-02
      1.00000000000000E-01   1.00000000000000E-01   0.00000000000000E+00   0.00000000000000E+00   2.76402116654651E-12
      3.65077107356639E-13   3.12909827390315E-12   2.11931093887581E-29   0.00000000000000E+00   0.00000000000000E+00
      0.00000000000000E+00   0.00000000000000E+00  -2.41956751224913E-13  -2.88714153073276E-12  -3.12909828195767E-12
      3.29630268746381E-31
      6.00000000000000E-02
      1.20000000000000E-01   1.20000000000000E-01   0.00000000000000E+00   0.00000000000000E+00   4.54895188102413E-12
      6.00273793548563E-13   5.14922567457269E-12   7.74177511918105E-31   0.00000000000000E+00   0.00000000000000E+00
      0.00000000000000E+00   0.00000000000000E+00  -3.89164685201139E-13  -4.76006123907489E-12  -5.14922592427603E-12
      1.49694479843540E-31
      7.00000000000000E-02
      1.40000000000000E-01   1.40000000000000E-01   0.00000000000000E+00   0.00000000000000E+00   7.07565804462344E-12
      9.32473771322963E-13   8.00813181594640E-12  -2.12898815777479E-29   0.00000000000000E+00   0.00000000000000E+00
      0.00000000000000E+00   0.00000000000000E+00  -5.85681550301180E-13  -7.42245007622172E-12  -8.00813162652290E-12
      7.82493871909413E-32
      8.00000000000000E-02
      1.60000000000000E-01   1.60000000000000E-01   0.00000000000000E+00   0.00000000000000E+00   1.04123619567133E-11
      1.36984747618347E-12   1.17822094328968E-11  -5.61278696140626E-30   0.00000000000000E+00   0.00000000000000E+00
      0.00000000000000E+00   0.00000000000000E+00  -8.25224591491733E-13  -1.09569848023813E-11  -1.17822093938730E-11
      5.67024544861893E-33
      9.00000000000000E-02
      1.80000000000000E-01   1.80000000000000E-01   0.00000000000000E+00   0.00000000000000E+00   1.45328796679910E-11
      1.90790246249469E-12   1.64407821304857E-11  -1.03546242219047E-29   0.00000000000000E+00   0.00000000000000E+00
      0.00000000000000E+00   0.00000000000000E+00  -1.09306237729038E-12  -1.53477197378837E-11  -1.64407821151741E-11
      2.18493457953450E-31
      1.00000000000000E-01
      2.00000000000000E-01   2.00000000000000E-01   0.00000000000000E+00   0.00000000000000E+00   1.93276834566358E-11
      2.53116030835840E-12   2.18588437649942E-11   1.16126626787716E-29   0.00000000000000E+00   0.00000000000000E+00
      0.00000000000000E+00   0.00000000000000E+00  -1.37137656215809E-12  -2.04874673402584E-11  -2.18588439024165E-11
      2.08665032509177E-31
      1.10000000000000E-01
      2.20000000000000E-01   2.20000000000000E-01   0.00000000000000E+00   0.00000000000000E+00   2.46416171607519E-11
      3.21910601610376E-12   2.78607231768556E-11  -2.99026063978368E-29   0.00000000000000E+00   0.00000000000000E+00
      0.00000000000000E+00   0.00000000000000E+00  -1.64491974246327E-12  -2.62158033592997E-11  -2.78607231017630E-11
     -2.02616770697317E-31
      1.20000000000000E-01
      2.40000000000000E-01   2.40000000000000E-01   0.00000000000000E+00   0.00000000000000E+00   3.03182175144458E-11
      3.94931573663992E-12   3.42675332510858E-11   2.12898815777479E-30   0.00000000000000E+00   0.00000000000000E+00
      0.00000000000000E+00   0.00000000000000E+00  -1.90379440255076E-12  -3.23637387778885E-11  -3.42675331804393E-11
      6.95550108363922E-32
      1.30000000000000E-01
      2.60000000000000E-01   2.60000000000000E-01   0.00000000000000E+00   0.00000000000000E+00   3.62221129536818E-11
      4.70660760212192E-12   4.09287205558037E-11   1.62577277502802E-29   0.00000000000000E+00   0.00000000000000E+00
      0.00000000000000E+00   0.00000000000000E+00  -2.14328544097339E-12  -3.87854350728848E-11  -4.09287205138582E-11
      3.59871577805682E-31
      1.40000000000000E-01
      2.80000000000000E-01   2.80000000000000E-01   0.00000000000000E+00   0.00000000000000E+00   4.22584511624182E-11
      5.47440321110680E-12   4.77328543735250E-11   4.83860944948816E-30   0.00000000000000E+00   0.00000000000000E+00
      0.00000000000000E+00   0.00000000000000E+00  -2.36228992349938E-12  -4.53705647084753E-11  -4.77328546319747E-11
     -6.35067490245321E-31
      1.50000000000000E-01
      3.00000000000000E-01   3.00000000000000E-01   0.00000000000000E+00   0.00000000000000E+00   4.83558112434078E-11
      6.24986753253942E-12   5.46056787759473E-11   2.03221596878503E-30   0.00000000000000E+00   0.00000000000000E+00
      0.00000000000000E+00   0.00000000000000E+00  -2.56173109940484E-12  -5.20439478062808E-11  -5.46056789056857E-11
     -5.86681395750439E-31
      1.60000000000000E-01
      3.20000000000000E-01   3.20000000000000E-01   0.00000000000000E+00   0.00000000000000E+00   5.44805115269936E-11
      7.02021439366299E-12   6.15007259206566E-11   1.24836123796794E-29   0.00000000000000E+00   0.00000000000000E+00
      0.00000000000000E+00   0.00000000000000E+00  -2.74339226604409E-12  -5.87573341470355E-11  -6.15007264130796E-11
     -4.47571374077655E-31
      1.70000000000000E-01
      3.40000000000000E-01   3.40000000000000E-01   0.00000000000000E+00   0.00000000000000E+00   6.06052162397087E-11
      7.78605932014275E-12   6.83912755598514E-11  -1.17094348677613E-29   0.00000000000000E+00   0.00000000000000E+00
      0.00000000000000E+00   0.00000000000000E+00  -2.90929468136420E-12  -6.54819807338620E-11  -6.83912754152262E-11
     -8.04418820977406E-31
      1.80000000000000E-01
      3.60000000000000E-01   3.60000000000000E-01   0.00000000000000E+00   0.00000000000000E+00   6.67169248922825E-11
      8.54582277393267E-12   7.52627476662152E-11  -2.59349466492565E-29   0.00000000000000E+00   0.00000000000000E+00
      0.00000000000000E+00   0.00000000000000E+00  -3.06137140546880E-12  -7.22013764028523E-11  -7.52627478083211E-11
     -2.83663478976243E-30
      1.90000000000000E-01
      3.80000000000000E-01   3.80000000000000E-01   0.00000000000000E+00   0.00000000000000E+00   7.28089627543593E-11
      9.29877787037174E-12   8.21077406247310E-11  -5.41924258342674E-30   0.00000000000000E+00   0.00000000000000E+00
      0.00000000000000E+00   0.00000000000000E+00  -3.20134712766571E-12  -7.89063940472005E-11  -8.21077411748662E-11
     -6.83453584740202E-31
      2.00000000000000E-01
      4.00000000000000E-01   4.00000000000000E-01   0.00000000000000E+00   0.00000000000000E+00   7.88782514948035E-11
      1.00446577837292E-11   8.89229092785328E-11  -9.67721889897631E-31   0.00000000000000E+00   0.00000000000000E+00
      0.00000000000000E+00   0.00000000000000E+00  -3.33071303825505E-12  -8.55921961748510E-11  -8.89229092131060E-11
     -1.02820450801623E-30
      2.10000000000000E-01
      4.20000000000000E-01   4.20000000000000E-01   0.00000000000000E+00   0.00000000000000E+00   8.49236517077828E-11
      1.07834355169291E-11   9.57070872247119E-11  -3.67734318161100E-30   0.00000000000000E+00   0.00000000000000E+00
      0.00000000000000E+00   0.00000000000000E+00  -3.45074149159942E-12  -9.22563456272077E-11  -9.57070871188072E-11
      6.89501846552062E-31
      2.20000000000000E-01
      4.40000000000000E-01   4.40000000000000E-01   0.00000000000000E+00   0.00000000000000E+00   9.09450213808442E-11
      1.15152074397667E-11   1.02460228820611E-10  -2.39995028694613E-29   0.00000000000000E+00   0.00000000000000E+00
      0.00000000000000E+00   0.00000000000000E+00  -3.56251439493675E-12  -9.88977144157825E-11  -1.02460228810719E-10
     -6.29019228433460E-31
      2.30000000000000E-01
      4.60000000000000E-01   4.60000000000000E-01   0.00000000000000E+00   0.00000000000000E+00   9.69427015805234E-11
      1.22401253457478E-11   1.09182826926271E-10  -4.48055235022603E-29   0.00000000000000E+00   0.00000000000000E+00
      0.00000000000000E+00   0.00000000000000E+00  -3.66695326891292E-12  -1.05515873911246E-10  -1.09182827180159E-10
      1.17336279150088E-30
      2.40000000000000E-01
      4.80000000000000E-01   4.80000000000000E-01   0.00000000000000E+00   0.00000000000000E+00   1.02917245222629E-10
      1.29583637794281E-11   1.15875609002057E-10  -5.70955915039602E-30   0.00000000000000E+00   0.00000000000000E+00
      0.00000000000000E+00   0.00000000000000E+00  -3.76484634621784E-12  -1.12110762448233E-10  -1.15875608794451E-10
     -1.53625850021249E-30
      2.50000000000000E-01
      5.00000000000000E-01   5.00000000000000E-01   0.00000000000000E+00   0.00000000000000E+00   1.08869279242641E-10
      1.36700994960465E-11   1.22539378738688E-10   1.90641212309833E-29   0.00000000000000E+00   0.00000000000000E+00
      0.00000000000000E+00   0.00000000000000E+00  -3.85687144310247E-12  -1.18682507607218E-10  -1.22539379050320E-10
      3.87088755959053E-31
      2.60000000000000E-01
      5.20000000000000E-01   5.20000000000000E-01   0.00000000000000E+00   0.00000000000000E+00   1.14799437795240E-10
      1.43755097273671E-11   1.29174947522607E-10   3.38702661464171E-30   0.00000000000000E+00   0.00000000000000E+00
      0.00000000000000E+00   0.00000000000000E+00  -3.94361471289382E-12  -1.25231332629994E-10  -1.29174947342888E-10
      2.17737425226967E-31
      2.70000000000000E-01
      5.40000000000000E-01   5.40000000000000E-01   0.00000000000000E+00   0.00000000000000E+00   1.20708332211180E-10
      1.50747614752025E-11   1.35783093686383E-10  -4.13217246986289E-29   0.00000000000000E+00   0.00000000000000E+00
      0.00000000000000E+00   0.00000000000000E+00  -4.02558585181632E-12  -1.31757507734814E-10  -1.35783093586630E-10
      1.20965236237204E-32
      2.80000000000000E-01
      5.60000000000000E-01   5.60000000000000E-01   0.00000000000000E+00   0.00000000000000E+00   1.26596539380507E-10
      1.57680164984450E-11   1.42364555878952E-10  -4.06443193757005E-30   0.00000000000000E+00   0.00000000000000E+00
      0.00000000000000E+00   0.00000000000000E+00  -4.10323040429597E-12  -1.38261325038845E-10  -1.42364555443141E-10
      3.61686056349240E-30
      2.90000000000000E-01
      5.80000000000000E-01   5.80000000000000E-01   0.00000000000000E+00   0.00000000000000E+00   1.32464599022522E-10
      1.64554264224021E-11   1.48920025444924E-10   1.96447543649219E-29   0.00000000000000E+00   0.00000000000000E+00
      0.00000000000000E+00   0.00000000000000E+00  -4.17693975026785E-12  -1.44743085747231E-10  -1.48920025497499E-10
      1.10078364975856E-30
      3.00000000000000E-01
      6.00000000000000E-01   6.00000000000000E-01   0.00000000000000E+00   0.00000000000000E+00   1.38313014954695E-10
      1.71371375044225E-11   1.55450152459118E-10   1.35481064585668E-29   0.00000000000000E+00   0.00000000000000E+00
      0.00000000000000E+00   0.00000000000000E+00  -4.24705925492856E-12  -1.51203093658547E-10  -1.55450152913476E-10
     -7.25791417423224E-31
      3.10000000000000E-01
      6.20000000000000E-01   6.20000000000000E-01   0.00000000000000E+00   0.00000000000000E+00   1.44142257973847E-10
      1.78132889198673E-11   1.61955546893714E-10   2.34188697355227E-29   0.00000000000000E+00   0.00000000000000E+00
      0.00000000000000E+00   0.00000000000000E+00  -4.31389496214689E-12  -1.57641651899716E-10  -1.61955546861863E-10
     -1.52416197658877E-30
      3.20000000000000E-01
      6.40000000000000E-01   6.40000000000000E-01   0.00000000000000E+00   0.00000000000000E+00   1.49952769182599E-10
      1.84840108241117E-11   1.68436780006710E-10   2.27414644125943E-29   0.00000000000000E+00   0.00000000000000E+00
      0.00000000000000E+00   0.00000000000000E+00  -4.37771912912990E-12  -1.64059061305265E-10  -1.68436780434395E-10
      2.78220043345569E-30
      3.30000000000000E-01
      6.60000000000000E-01   6.60000000000000E-01   0.00000000000000E+00   0.00000000000000E+00   1.55744963254681E-10
      1.91494315983248E-11   1.74894394853005E-10  -2.99993785868266E-29   0.00000000000000E+00   0.00000000000000E+00
      0.00000000000000E+00   0.00000000000000E+00  -4.43877483354716E-12  -1.70455619632430E-10  -1.74894394465977E-10
      4.01604584307517E-30
      3.40000000000000E-01
      6.80000000000000E-01   6.80000000000000E-01   0.00000000000000E+00   0.00000000000000E+00   1.61519231423779E-10
      1.98096701498375E-11   1.81328901573616E-10   1.35481064585668E-30   0.00000000000000E+00   0.00000000000000E+00
      0.00000000000000E+00   0.00000000000000E+00  -4.49727983300407E-12  -1.76831621201509E-10  -1.81328901034514E-10
      8.46756653660428E-31
      3.50000000000000E-01
      7.00000000000000E-01   7.00000000000000E-01   0.00000000000000E+00   0.00000000000000E+00   1.67275944140676E-10
      2.04648422482490E-11   1.87740786388924E-10   8.90304138705821E-30   0.00000000000000E+00   0.00000000000000E+00
      0.00000000000000E+00   0.00000000000000E+00  -4.55342981752983E-12  -1.83187356754055E-10  -1.87740786571584E-10
     -3.50799185087891E-30
      3.60000000000000E-01
      7.20000000000000E-01   7.20000000000000E-01   0.00000000000000E+00   0.00000000000000E+00   1.73015453398667E-10
      2.11150614127177E-11   1.94130514811385E-10   5.22569820544721E-30   0.00000000000000E+00   0.00000000000000E+00
      0.00000000000000E+00   0.00000000000000E+00  -4.60740116579790E-12  -1.89523113423758E-10  -1.94130514589556E-10
     -7.74177511918105E-31
      3.70000000000000E-01
      7.40000000000000E-01   7.40000000000000E-01   0.00000000000000E+00   0.00000000000000E+00   1.78738094756542E-10
      2.17604334950957E-11   2.00498528251638E-10  -1.42255117814952E-29   0.00000000000000E+00   0.00000000000000E+00
      0.00000000000000E+00   0.00000000000000E+00  -4.65935329286935E-12  -1.95839174766579E-10  -2.00498528059448E-10
     -3.38702661464171E-30
      3.80000000000000E-01
      7.60000000000000E-01   7.60000000000000E-01   0.00000000000000E+00   0.00000000000000E+00   1.84444189094851E-10
      2.24010624643451E-11   2.06845251559197E-10   1.51932336713928E-29   0.00000000000000E+00   0.00000000000000E+00
      0.00000000000000E+00   0.00000000000000E+00  -4.70943065959126E-12  -2.02135820822518E-10  -2.06845251482109E-10
     -1.08868712613484E-30
      3.90000000000000E-01
      7.80000000000000E-01   7.80000000000000E-01   0.00000000000000E+00   0.00000000000000E+00   1.90134044145182E-10
      2.30370492430986E-11   2.13171093388280E-10  -6.87082541827318E-30   0.00000000000000E+00   0.00000000000000E+00
      0.00000000000000E+00   0.00000000000000E+00  -4.75776450008674E-12  -2.08413328194579E-10  -2.13171092694666E-10
      1.62093416557853E-30
      4.00000000000000E-01
      8.00000000000000E-01   8.00000000000000E-01   0.00000000000000E+00   0.00000000000000E+00   1.95807955824188E-10
      2.36684895738574E-11   2.19476445398045E-10  -1.76125383961369E-29   0.00000000000000E+00   0.00000000000000E+00
      0.00000000000000E+00   0.00000000000000E+00  -4.80447431306913E-12  -2.14671970137066E-10  -2.19476444450135E-10
     -1.28223150411436E-30
      4.10000000000000E-01
      8.20000000000000E-01   8.20000000000000E-01   0.00000000000000E+00   0.00000000000000E+00   2.01466209397693E-10
      2.42954768632797E-11   2.25761686260973E-10  -2.50639969483487E-29   0.00000000000000E+00   0.00000000000000E+00
      0.00000000000000E+00   0.00000000000000E+00  -4.84966915428113E-12  -2.20912016648681E-10  -2.25761685802962E-10
      1.42738978759901E-30
      4.20000000000000E-01
      8.40000000000000E-01   8.40000000000000E-01   0.00000000000000E+00   0.00000000000000E+00   2.07109080502324E-10
      2.49181027518469E-11   2.32027183254171E-10  -1.45158283484645E-29   0.00000000000000E+00   0.00000000000000E+00
      0.00000000000000E+00   0.00000000000000E+00  -4.89344876067164E-12  -2.27133734567831E-10  -2.32027183328503E-10
     -2.08060206327991E-30
      4.30000000000000E-01
      8.60000000000000E-01   8.60000000000000E-01   0.00000000000000E+00   0.00000000000000E+00   2.12736836046819E-10
      2.55364567756512E-11   2.38273292822471E-10  -1.93544377979526E-30   0.00000000000000E+00   0.00000000000000E+00
      0.00000000000000E+00   0.00000000000000E+00  -4.93590453157184E-12  -2.33337387667911E-10  -2.38273292199483E-10
      8.46756653660428E-31
      4.40000000000000E-01
      8.80000000000000E-01   8.80000000000000E-01   0.00000000000000E+00   0.00000000000000E+00   2.18349735005383E-10
      2.61506216954099E-11   2.44500356700793E-10   3.58057099262124E-30   0.00000000000000E+00   0.00000000000000E+00
      0.00000000000000E+00   0.00000000000000E+00  -4.97712038783865E-12  -2.39523236751880E-10  -2.44500357139719E-10
     -2.39511167749664E-30
      4.50000000000000E-01
      9.00000000000000E-01   9.00000000000000E-01   0.00000000000000E+00   0.00000000000000E+00   2.23948029119170E-10
      2.67606841196662E-11   2.50708713238836E-10  -1.98382987429014E-29   0.00000000000000E+00   0.00000000000000E+00
      0.00000000000000E+00   0.00000000000000E+00  -5.01717352644377E-12  -2.45691539744729E-10  -2.50708713271173E-10
     -6.53212275680901E-31
      4.60000000000000E-01
      9.20000000000000E-01   9.20000000000000E-01   0.00000000000000E+00   0.00000000000000E+00   2.29531963519066E-10
      2.73667236399607E-11   2.56898687159027E-10  -2.46769081923896E-29   0.00000000000000E+00   0.00000000000000E+00
      0.00000000000000E+00   0.00000000000000E+00  -5.05613508515633E-12  -2.51842551783563E-10  -2.56898686868720E-10
      3.31444747289939E-30
      4.70000000000000E-01
      9.40000000000001E-01   9.40000000000001E-01   0.00000000000000E+00   0.00000000000000E+00   2.35101777287046E-10
      2.79688184807397E-11   2.63070595767786E-10  -3.41605827133864E-29   0.00000000000000E+00   0.00000000000000E+00
      0.00000000000000E+00   0.00000000000000E+00  -5.09407072963634E-12  -2.57976525303674E-10  -2.63070596033310E-10
      3.94346670133285E-30
      4.80000000000000E-01
      9.60000000000001E-01   9.60000000000001E-01   0.00000000000000E+00   0.00000000000000E+00   2.40657703939877E-10
      2.85670467044532E-11   2.69224750644330E-10   2.29350087905739E-29   0.00000000000000E+00   0.00000000000000E+00
      0.00000000000000E+00   0.00000000000000E+00  -5.13104117336252E-12  -2.64093710121967E-10  -2.69224751295330E-10
     -5.27408429994209E-30
      4.90000000000000E-01
      9.80000000000001E-01   9.80000000000001E-01   0.00000000000000E+00   0.00000000000000E+00   2.46199971880281E-10
      2.91614842082428E-11   2.75361456088523E-10   3.48379880363147E-29   0.00000000000000E+00   0.00000000000000E+00
      0.00000000000000E+00   0.00000000000000E+00  -5.16710263921292E-12  -2.70194353515416E-10  -2.75361456154629E-10
      3.02413090593010E-30
      5.00000000000000E-01
      1.00000000000000E+00   1.00000000000000E+00   0.00000000000000E+00   0.00000000000000E+00   2.51728804781013E-10
      2.97522027798942E-11   2.81481007560907E-10   1.08384851668535E-29   0.00000000000000E+00   0.00000000000000E+00
      0.00000000000000E+00   0.00000000000000E+00  -5.20230727022474E-12  -2.76278700295339E-10  -2.81481007565563E-10
     -1.64512721282597E-30
      5.10000000000000E-01
      1.02000000000000E+00   1.02000000000000E+00   0.00000000000000E+00   0.00000000000000E+00   2.57244421951558E-10
      3.03392745145183E-11   2.87583696466076E-10  -1.96447543649219E-29   0.00000000000000E+00   0.00000000000000E+00
      0.00000000000000E+00   0.00000000000000E+00  -5.23670349595143E-12  -2.82346992876691E-10  -2.87583696372642E-10
      2.29833948850687E-30
      5.20000000000000E-01
      1.04000000000000E+00   1.04000000000000E+00   0.00000000000000E+00   0.00000000000000E+00   2.62747038636374E-10
      3.09227693849009E-11   2.93669808021275E-10   1.92576656089629E-29   0.00000000000000E+00   0.00000000000000E+00
      0.00000000000000E+00   0.00000000000000E+00  -5.27033635992902E-12  -2.88399471343293E-10  -2.93669807703222E-10
     -1.04030103163995E-30
      5.30000000000000E-01
      1.06000000000000E+00   1.06000000000000E+00   0.00000000000000E+00   0.00000000000000E+00   2.68236866311168E-10
      3.15027553030561E-11   2.99739621614224E-10   2.39027306804715E-29   0.00000000000000E+00   0.00000000000000E+00
      0.00000000000000E+00   0.00000000000000E+00  -5.30324781297113E-12  -2.94436373506399E-10  -2.99739621319370E-10
      3.26606137840451E-30
      5.40000000000000E-01
      1.08000000000000E+00   1.08000000000000E+00   0.00000000000000E+00   0.00000000000000E+00   2.73714112929649E-10
      3.20792988229796E-11   3.05793411752629E-10  -3.85153312179257E-29   0.00000000000000E+00   0.00000000000000E+00
      0.00000000000000E+00   0.00000000000000E+00  -5.33547697639158E-12  -3.00457934959422E-10  -3.05793411935813E-10
     -4.08862498481749E-30
      5.50000000000000E-01
      1.10000000000000E+00   1.10000000000000E+00   0.00000000000000E+00   0.00000000000000E+00   2.79178983151527E-10
      3.26524665451144E-11   3.11831449696641E-10  -2.16769703337069E-29   0.00000000000000E+00   0.00000000000000E+00
      0.00000000000000E+00   0.00000000000000E+00  -5.36706037867245E-12  -3.06464389126391E-10  -3.11831449505063E-10
      1.20965236237204E-30
      5.60000000000000E-01
      1.12000000000000E+00   1.12000000000000E+00   0.00000000000000E+00   0.00000000000000E+00   2.84631678533636E-10
      3.32223210047269E-11   3.17853999538363E-10   2.81607069960211E-29   0.00000000000000E+00   0.00000000000000E+00
      0.00000000000000E+00   0.00000000000000E+00  -5.39803216865123E-12  -3.12455967306117E-10  -3.17853999474769E-10
     -3.04832395317754E-30
      5.70000000000000E-01
      1.14000000000000E+00   1.14000000000000E+00   0.00000000000000E+00   0.00000000000000E+00   2.90072397730797E-10
      3.37889250068416E-11   3.23861322737639E-10  -1.86770324750243E-29   0.00000000000000E+00   0.00000000000000E+00
      0.00000000000000E+00   0.00000000000000E+00  -5.42842430787360E-12  -3.18432898708652E-10  -3.23861323016525E-10
     -1.54835502383621E-30
      5.80000000000000E-01
      1.16000000000000E+00   1.16000000000000E+00   0.00000000000000E+00   0.00000000000000E+00   2.95501336632400E-10
      3.43523406350993E-11   3.29853677267499E-10   1.04513964108944E-29   0.00000000000000E+00   0.00000000000000E+00
      0.00000000000000E+00   0.00000000000000E+00  -5.45826674446142E-12  -3.24395410489291E-10  -3.29853677233752E-10
     -6.91921151276806E-30
      5.90000000000000E-01
      1.18000000000000E+00   1.18000000000000E+00   0.00000000000000E+00   0.00000000000000E+00   3.00918688515893E-10
      3.49126271503850E-11   3.35831315666278E-10   3.72572927610588E-29   0.00000000000000E+00   0.00000000000000E+00
      0.00000000000000E+00   0.00000000000000E+00  -5.48758757049904E-12  -3.30343727774729E-10  -3.35831315345228E-10
      4.35474850453934E-30
      6.00000000000000E-01
      1.20000000000000E+00   1.20000000000000E+00   0.00000000000000E+00   0.00000000000000E+00   3.06324644166026E-10
      3.54698425833862E-11   3.41794486749412E-10   2.00318431208810E-29   0.00000000000000E+00   0.00000000000000E+00
      0.00000000000000E+00   0.00000000000000E+00  -5.51641316473709E-12  -3.36278073685304E-10  -3.41794486850041E-10
      4.79022335499328E-30
      6.10000000000000E-01
      1.22000000000000E+00   1.22000000000000E+00   0.00000000000000E+00   0.00000000000000E+00   3.11719391985095E-10
      3.60240457800415E-11   3.47743437765136E-10   3.77411537060076E-30   0.00000000000000E+00   0.00000000000000E+00
      0.00000000000000E+00   0.00000000000000E+00  -5.54476832216526E-12  -3.42198669351154E-10  -3.47743437673319E-10
     -6.67728104029366E-30
      6.20000000000000E-01
      1.24000000000000E+00   1.24000000000000E+00   0.00000000000000E+00   0.00000000000000E+00   3.17103118085721E-10
      3.65752925314469E-11   3.53678410617168E-10   8.41918044210939E-30   0.00000000000000E+00   0.00000000000000E+00
      0.00000000000000E+00   0.00000000000000E+00  -5.57267637183707E-12  -3.48105733923582E-10  -3.53678410295419E-10
     -2.85477957519801E-30
      6.30000000000000E-01
      1.26000000000000E+00   1.26000000000000E+00   0.00000000000000E+00   0.00000000000000E+00   3.22476006371094E-10
      3.71236374529284E-11   3.59599643824022E-10   2.19672869006762E-29   0.00000000000000E+00   0.00000000000000E+00
      0.00000000000000E+00   0.00000000000000E+00  -5.60015928415997E-12  -3.53999484581845E-10  -3.59599643866005E-10
      1.45158283484645E-31
      6.40000000000000E-01
      1.28000000000000E+00   1.28000000000000E+00   0.00000000000000E+00   0.00000000000000E+00   3.27838238617766E-10
      3.76691354152381E-11   3.65507374033004E-10   2.41930472474408E-29   0.00000000000000E+00   0.00000000000000E+00
      0.00000000000000E+00   0.00000000000000E+00  -5.62723776871950E-12  -3.59880136534331E-10  -3.65507374303050E-10
     -3.19348223666218E-30
      6.50000000000000E-01
      1.30000000000000E+00   1.30000000000000E+00   0.00000000000000E+00   0.00000000000000E+00   3.33189994512536E-10
      3.82118399179713E-11   3.71401834430507E-10   2.88381123189494E-29   0.00000000000000E+00   0.00000000000000E+00
      0.00000000000000E+00   0.00000000000000E+00  -5.65393136359519E-12  -3.65747903015659E-10  -3.71401834379254E-10
     -1.49996892934133E-29
      6.60000000000000E-01
      1.32000000000000E+00   1.32000000000000E+00   0.00000000000000E+00   0.00000000000000E+00   3.38531451691767E-10
      3.87518020581784E-11   3.77283253749945E-10  -1.86770324750243E-29   0.00000000000000E+00   0.00000000000000E+00
      0.00000000000000E+00   0.00000000000000E+00  -5.68025851700389E-12  -3.71602995278044E-10  -3.77283253795048E-10
     -6.29019228433460E-31
      6.70000000000000E-01
      1.34000000000000E+00   1.34000000000000E+00   0.00000000000000E+00   0.00000000000000E+00   3.43862785810476E-10
      3.92890732147069E-11   3.83151859025183E-10  -1.82899437190652E-29   0.00000000000000E+00   0.00000000000000E+00
      0.00000000000000E+00   0.00000000000000E+00  -5.70623666203995E-12  -3.77445622581190E-10  -3.83151859243230E-10
     -7.83854730817081E-30
      6.80000000000000E-01
      1.36000000000000E+00   1.36000000000000E+00   0.00000000000000E+00   0.00000000000000E+00   3.49184170560926E-10
      3.98237039515261E-11   3.89007874512452E-10  -8.80626919806845E-30   0.00000000000000E+00   0.00000000000000E+00
      0.00000000000000E+00   0.00000000000000E+00  -5.73188228516100E-12  -3.83275992176370E-10  -3.89007874461531E-10
      5.70955915039602E-30
      6.90000000000000E-01