DF-ISE text

Info {
  version   = 1.0
  type      = xyplot
  datasets  = [
    "time"
    "ntype OuterVoltage" "ntype InnerVoltage" "ntype QuasiFermiPotential" "ntype DisplacementCurrent" "ntype eCurrent"
    "ntype hCurrent" "ntype TotalCurrent" "ntype Charge" "ptype OuterVoltage" "ptype InnerVoltage"
    "ptype QuasiFermiPotential" "ptype DisplacementCurrent" "ptype eCurrent" "ptype hCurrent" "ptype TotalCurrent"
    "ptype Charge" ]
  functions = [
    Time
    OuterVoltage InnerVoltage QuasiFermiPotential DisplacementCurrent eCurrent
    hCurrent TotalCurrent Charge OuterVoltage InnerVoltage
    QuasiFermiPotential DisplacementCurrent eCurrent hCurrent TotalCurrent
    Charge ]
}

Data {
      1.00000000000000E-15
      1.49999492055220E+01   1.49999492054494E+01   0.00000000000000E+00   2.95150742480762E-09   7.22689972331626E-07
     -3.10391207400609E-22   7.25641479756433E-07   1.35142361924204E-28   0.00000000000000E+00   7.30016872325561E-11
      0.00000000000000E+00   2.02448593430959E-10  -7.25843928349864E-07   6.86538767618220E-22  -7.25641479756432E-07
     -7.60822949837518E-28
      2.30000000000000E-15
      1.49999492057984E+01   1.49999492057258E+01   0.00000000000000E+00   6.79571163597679E-09   7.18845767566113E-07
      1.06348479369056E-21   7.25641479202091E-07   9.66270307062785E-29   0.00000000000000E+00   7.25510969518160E-11
      0.00000000000000E+00   1.39875498372126E-10  -7.25781354700464E-07  -1.66336021863311E-22  -7.25641479202092E-07
      4.62571063371068E-28
      3.99000000000000E-15
      1.49999492062441E+01   1.49999492061716E+01   0.00000000000000E+00   1.18055176019395E-08   7.13835957995429E-07
     -5.72853367986421E-22   7.25641475597368E-07   5.82810508190849E-29   0.00000000000000E+00   7.24910304936823E-11
      0.00000000000000E+00   5.16823146298887E-12  -7.25646643828833E-07   3.56267131644432E-22  -7.25641475597370E-07
     -9.82237718246096E-28
      6.18700000000000E-15
      1.49999492080132E+01   1.49999492079406E+01   0.00000000000000E+00   1.83393335622740E-08   7.07302128387083E-07
     -1.78930607728589E-21   7.25641461949355E-07   4.05596437103345E-29   0.00000000000000E+00   7.26400026574329E-11
      0.00000000000000E+00   7.37760941665535E-11  -7.25715238043521E-07  -2.78374915287410E-22  -7.25641461949355E-07
     -2.46381993167937E-28
      9.04310000000000E-15
      1.49999492106352E+01   1.49999492105627E+01   0.00000000000000E+00   2.68693485415309E-08   6.98772062946467E-07
      1.78026031352085E-21   7.25641411487999E-07  -1.43162357086731E-28   0.00000000000000E+00   7.25398918938767E-11
      0.00000000000000E+00  -4.65637604621816E-11  -7.25594847727537E-07   4.14324934055636E-22  -7.25641411487998E-07
      1.37803597121423E-28
      1.27560300000000E-14
      1.49999492154723E+01   1.49999492153997E+01   0.00000000000000E+00   3.80202432461548E-08   6.87620997648543E-07
     -7.92786937736570E-22   7.25641240894697E-07   7.65347049672789E-29   0.00000000000000E+00   7.25059093411099E-11
      0.00000000000000E+00  -1.53651148337428E-10  -7.25487589746362E-07  -7.97239676977958E-23  -7.25641240894699E-07
      1.28513466978405E-28
      1.75828390000000E-14
      1.49999492239058E+01   1.49999492238333E+01   0.00000000000000E+00   5.26229477292857E-08   6.73017755739481E-07
      1.83493993030956E-21   7.25640703468768E-07  -4.22894465885265E-29   0.00000000000000E+00   7.24811112620639E-11
      0.00000000000000E+00  -3.33039421436271E-10  -7.25307664047333E-07   4.82739323799868E-22  -7.25640703468769E-07
     -4.56184098897743E-28
      2.38576907000000E-14
      1.49999492392660E+01   1.49999492391935E+01   0.00000000000000E+00   7.17905702386653E-08   6.53848520522907E-07
      2.85562611036550E-21   7.25639090761575E-07  -5.29827734718953E-30   0.00000000000000E+00   7.25343812096443E-11
      0.00000000000000E+00  -3.16849011380262E-10  -7.25322241750197E-07   9.75941239976885E-23  -7.25639090761577E-07
      2.19092235872824E-28
      3.20149979100000E-14
      1.49999492642183E+01   1.49999492641459E+01   0.00000000000000E+00   9.70276333770722E-08   6.28606791783564E-07
      1.14759689556554E-22   7.25634425160636E-07   4.59063071520189E-29   0.00000000000000E+00   7.25035213779425E-11
      0.00000000000000E+00  -5.67149522511147E-10  -7.25067275638123E-07  -3.04225511028340E-22  -7.25634425160635E-07
      7.09533689672943E-28
      4.26194972830000E-14
      1.49999493043402E+01   1.49999493042678E+01   0.00000000000000E+00   1.30388618286457E-07   5.95232923232015E-07
      1.80199714883685E-21   7.25621541518474E-07   3.05679151971414E-29   0.00000000000000E+00   7.24359236513578E-11
      0.00000000000000E+00  -1.09325830897832E-09  -7.24528283209495E-07  -4.30959155923195E-22  -7.25621541518473E-07
      4.54635743873907E-28
      5.64053464679000E-14
      1.49999493679351E+01   1.49999493678628E+01   0.00000000000000E+00   1.74691984647732E-07   5.50895696289329E-07
      5.65157718216158E-22   7.25587680937061E-07  -4.79990057389225E-29   0.00000000000000E+00   7.23387519193922E-11
      0.00000000000000E+00  -1.93257901165279E-09  -7.23655101925408E-07   3.95464606261523E-22  -7.25587680937060E-07
     -1.58899934321191E-28
      7.43269504082700E-14
      1.49999494666668E+01   1.49999494665946E+01   0.00000000000000E+00   2.33672926883165E-07   4.91830033999686E-07
      4.99542178069705E-22   7.25502960882852E-07  -7.08856284350015E-30   0.00000000000000E+00   7.21816974187674E-11
      0.00000000000000E+00  -3.28065567159218E-09  -7.22222305211259E-07  -1.59305540560204E-22  -7.25502960882852E-07
     -6.79727855464096E-28
      9.76250355307510E-14
      1.49999496165662E+01   1.49999496164942E+01   0.00000000000000E+00   3.11398612881875E-07   4.13902940870420E-07
      4.36086820314905E-22   7.25301553752296E-07  -8.57643524921776E-30   0.00000000000000E+00   7.19728424863574E-11
      0.00000000000000E+00  -5.10221597500667E-09  -7.20199337777287E-07   9.68105568618491E-23  -7.25301553752294E-07
     -2.74639472352948E-28
      1.27912546189976E-13
      1.49999498341348E+01   1.49999498340631E+01   0.00000000000000E+00   4.09109257909329E-07   3.15739818220483E-07
      1.46689885533172E-21   7.24849076129814E-07   9.33851623751214E-30   0.00000000000000E+00   7.16693874746238E-11
      0.00000000000000E+00  -7.68531445671086E-09  -7.17163761673102E-07   6.51495794170623E-22  -7.24849076129813E-07
      3.68508495673018E-28
      1.67286310046969E-13
      1.49999501323355E+01   1.49999501322643E+01   0.00000000000000E+00   5.18294798906754E-07   2.05603430136424E-07
     -5.48011270482414E-22   7.23898229043177E-07   1.08360658621287E-28   0.00000000000000E+00   7.12300022518230E-11
      0.00000000000000E+00  -1.10842339043131E-08  -7.12813995138862E-07  -5.28952249154108E-22  -7.23898229043176E-07
      6.64437849603714E-28
      2.17286310046969E-13
      1.49999505046968E+01   1.49999505046260E+01   0.00000000000000E+00   6.14741628368194E-07   1.07362836314423E-07
     -5.23979241375277E-22   7.22104464682616E-07   1.04816377199537E-28   0.00000000000000E+00   7.07063035602656E-11
      0.00000000000000E+00  -1.45460988023532E-08  -7.07558365880263E-07   1.97483309939438E-22  -7.22104464682616E-07
     -7.64500293019129E-29
      2.67286310046969E-13
      1.49999508447914E+01   1.49999508447212E+01   0.00000000000000E+00   6.67459852872397E-07   5.22875739433073E-08
      2.71912958549294E-22   7.19747426815704E-07  -5.29222908537767E-29   0.00000000000000E+00   7.02219144162331E-11
      0.00000000000000E+00  -1.71074329659696E-08  -7.02639993849737E-07  -1.89048261801720E-22  -7.19747426815707E-07
      5.36311471381267E-28
      3.17286310046969E-13
      1.49999511431024E+01   1.49999511430326E+01   0.00000000000000E+00   6.91331808612468E-07   2.56488029699185E-08
     -4.29876295938903E-22   7.16980611582386E-07   2.96364828781150E-29   0.00000000000000E+00   6.97961222145391E-11
      0.00000000000000E+00  -1.86561537704136E-08  -6.98324457811972E-07   1.87888040549221E-22  -7.16980611582385E-07
     -5.99987571736531E-28
      3.67286310046969E-13
      1.49999513994008E+01   1.49999513993314E+01   0.00000000000000E+00   7.00034452652576E-07   1.39311425958658E-08
     -1.05983948590464E-21   7.13965595248441E-07  -6.17043670045977E-29   0.00000000000000E+00   6.94298454025554E-11
      0.00000000000000E+00  -1.93567420741003E-08  -6.94608853174343E-07  -1.30264904965390E-25  -7.13965595248443E-07
      3.83992045911380E-28
      4.17286310046969E-13
      1.49999516177654E+01   1.49999516176963E+01   0.00000000000000E+00   7.01775745039837E-07   9.06760364609584E-09
     -5.54356806257894E-22   7.10843348685933E-07   2.75437842912113E-29   0.00000000000000E+00   6.91179406749987E-11
      0.00000000000000E+00  -1.93998085390330E-08  -6.91443540146901E-07   2.34895838925536E-22  -7.10843348685933E-07
      1.05094597242883E-28
      4.67286310046969E-13
      1.49999518033215E+01   1.49999518032527E+01   0.00000000000000E+00   7.00600126778530E-07   7.12416236438757E-09
     -9.84773147794711E-22   7.07724289142917E-07  -3.02050194884298E-29   0.00000000000000E+00   6.88526930739433E-11
      0.00000000000000E+00  -1.89741911446705E-08  -6.88750097998247E-07   5.63866539861577E-22  -7.07724289142917E-07
     -4.24829909665060E-28
      5.17286310046969E-13
      1.49999519611811E+01   1.49999519611125E+01   0.00000000000000E+00   6.98316197602645E-07   6.37231895715922E-09
      5.64482661218767E-22   7.04688516559805E-07  -9.48367452099679E-30   0.00000000000000E+00   6.86274897783105E-11
      0.00000000000000E+00  -1.82242538714894E-08  -6.86464262688315E-07   1.50544962007142E-23  -7.04688516559804E-07
     -4.99344495187178E-28
      5.67286310046969E-13
      1.49999520958161E+01   1.49999520957477E+01   0.00000000000000E+00   6.95695622611943E-07   6.09462496958904E-09
      2.17584371399226E-21   7.01790247581534E-07  -1.70319052621983E-29   0.00000000000000E+00   6.84347995196491E-11
      0.00000000000000E+00  -1.72792498229093E-08  -6.84510997758625E-07   3.35697802131532E-22  -7.01790247581534E-07
     -7.04501535845476E-28
      6.17286310046969E-13
      1.49999522111172E+01   1.49999522110490E+01   0.00000000000000E+00   6.93060326157905E-07   6.00290635598215E-09
      8.83649609585465E-22   6.99063232513888E-07   1.61851486085379E-29   0.00000000000000E+00   6.82707648189965E-11
      0.00000000000000E+00  -1.62180703895177E-08  -6.82845162124369E-07  -4.51598232536021E-22  -6.99063232513887E-07
      4.29281430358589E-28
      6.67286310046969E-13
      1.49999523102884E+01   1.49999523102202E+01   0.00000000000000E+00   6.90542098757425E-07   5.98364237140236E-09
      2.22957825098462E-21   6.96525741128829E-07   1.22489398213793E-28   0.00000000000000E+00   6.81287728552736E-11
      0.00000000000000E+00  -1.51204222380449E-08  -6.81405318890784E-07   4.75169192440057E-22  -6.96525741128829E-07
     -3.61540898065755E-28
      7.17286310046969E-13
      1.49999523961008E+01   1.49999523960328E+01   0.00000000000000E+00   6.88192159040994E-07   5.99260097428165E-09
     -7.96567256921962E-24   6.94184760015276E-07   9.68205750842580E-29   0.00000000000000E+00   6.80064356653132E-11
      0.00000000000000E+00  -1.40192661807730E-08  -6.80165493834503E-07  -3.28495392249402E-22  -6.94184760015276E-07
      1.68964241976126E-28
      7.67286310046969E-13
      1.49999524707533E+01   1.49999524706854E+01   0.00000000000000E+00   6.86026634674023E-07   6.01262322009383E-09
     -7.20285816216723E-22   6.92039257894116E-07  -1.54920178048987E-28   0.00000000000000E+00   6.78995283912036E-11
      0.00000000000000E+00  -1.29543326991478E-08  -6.79084925194968E-07  -2.04226364630374E-22  -6.92039257894116E-07
      3.53024945434656E-28
      8.17286310046969E-13
      1.49999525361700E+01   1.49999525361022E+01   0.00000000000000E+00   6.84045732856545E-07   6.03703439679139E-09
      1.70249374742135E-22   6.90082767253337E-07   3.99911071000196E-29   0.00000000000000E+00   6.78067652066240E-11
      0.00000000000000E+00  -1.19395752615482E-08  -6.78143191991787E-07  -6.46017680267377E-22  -6.90082767253336E-07
      3.62895708711612E-28
      8.67286310046969E-13
      1.49999525938554E+01   1.49999525937877E+01   0.00000000000000E+00   6.82242066853590E-07   6.06320379291883E-09
      2.97160090251735E-22   6.88305270646509E-07   5.38174336019320E-29   0.00000000000000E+00   6.77235538747140E-11
      0.00000000000000E+00  -1.10022783643927E-08  -6.77302992282116E-07   1.40058439386824E-22  -6.88305270646509E-07
     -2.51220602617425E-28
      9.17286310046969E-13
      1.49999526451412E+01   1.49999526450736E+01   0.00000000000000E+00   6.80604565623770E-07   6.09006146925102E-09
      4.47022743672647E-22   6.86694627093022E-07   4.70191873254012E-29   0.00000000000000E+00   6.76498943954736E-11
      0.00000000000000E+00  -1.01327877971210E-08  -6.76561839295899E-07   3.47884278465472E-22  -6.86694627093019E-07
     -1.06255863510760E-28
      9.67286310046969E-13
      1.49999526910917E+01   1.49999526910241E+01   0.00000000000000E+00   6.79120463713259E-07   6.11714620501575E-09
      1.10871361251579E-21   6.85237609918275E-07  -1.02856740372494E-28   0.00000000000000E+00   6.75845009425818E-11
      0.00000000000000E+00  -9.33811071856850E-09  -6.75899499199704E-07  -3.63889276673280E-22  -6.85237609918273E-07
      3.59992543041919E-28
      1.01728631004697E-12
      1.49999527326166E+01   1.49999527325491E+01   0.00000000000000E+00   6.77776398418084E-07   6.14423802492431E-09
     -4.71999852576132E-22   6.83920636443007E-07  -8.80868850279319E-29   0.00000000000000E+00   6.75257203107690E-11
      0.00000000000000E+00  -8.61377206124461E-09  -6.75306864381762E-07   2.03332309650040E-22  -6.83920636443007E-07
      3.06187205963611E-28
      1.06728631004697E-12
      1.49999527703789E+01   1.49999527703114E+01   0.00000000000000E+00   6.76559082656350E-07   6.17121910669878E-09
      5.95265260299819E-22   6.82730301763049E-07   7.95951254440802E-29   0.00000000000000E+00   6.74715319158165E-11
      0.00000000000000E+00  -7.97292569513808E-09  -6.74757376067912E-07   1.63863361916225E-22  -6.82730301763050E-07
     -2.21801857164537E-28
      1.11728631004697E-12
      1.49999528050651E+01   1.49999528049977E+01   0.00000000000000E+00   6.75455726243527E-07   6.19801542305847E-09
     -6.89908251334106E-23   6.81653741666585E-07  -1.19271722929883E-29   0.00000000000000E+00   6.74217520682501E-11
      0.00000000000000E+00  -7.39421196500588E-09  -6.74259529701578E-07  -8.85188264890066E-23  -6.81653741666584E-07
     -1.34706887073750E-28
      1.16728631004697E-12
      1.49999528371358E+01   1.49999528370684E+01   0.00000000000000E+00   6.74454235635864E-07   6.22457668845280E-09
      2.45855758449982E-22   6.80678812324317E-07  -2.46769081923896E-29   0.00000000000000E+00   6.73760133891207E-11
      0.00000000000000E+00  -6.88175951449963E-09  -6.73797052809818E-07   2.75499726236215E-22  -6.80678812324317E-07
     -4.59667897701375E-28
      1.21728631004697E-12
      1.49999528670585E+01   1.49999528669912E+01   0.00000000000000E+00   6.73543376267635E-07   6.25086507927938E-09
     -9.04576376504601E-24   6.79794241346915E-07   6.44744709144297E-30   0.00000000000000E+00   6.73337648100053E-11
      0.00000000000000E+00  -6.42265730882656E-09  -6.73371584038090E-07   8.93250976902661E-22  -6.79794241346915E-07
     -7.14565843500411E-28
      1.26728631004697E-12
      1.49999528951221E+01   1.49999528950548E+01   0.00000000000000E+00   6.72712822252462E-07   6.27685311079071E-09
     -5.63267558623462E-22   6.78989675363252E-07   5.02368626093108E-29   0.00000000000000E+00   6.72933531256339E-11
      0.00000000000000E+00  -6.02523684154541E-09  -6.72964438521706E-07  -2.65452452128945E-22  -6.78989675363251E-07
     -9.59980114778450E-29
      1.31728631004697E-12
      1.49999529216788E+01   1.49999529216115E+01   0.00000000000000E+00   6.71953204645146E-07   6.30251894190801E-09
      1.84290560287878E-22   6.78255723587054E-07   1.28344115647673E-28   0.00000000000000E+00   6.72553294044300E-11
      0.00000000000000E+00  -5.67144356669169E-09  -6.72584280020363E-07   5.34419156056420E-22  -6.78255723587054E-07
      3.29025442565195E-29
      1.36728631004697E-12
      1.49999529469269E+01   1.49999529468597E+01   0.00000000000000E+00   6.71256055371437E-07   6.32784616946262E-09
      6.68036404618622E-22   6.77583901540900E-07  -3.31081851581227E-29   0.00000000000000E+00   6.72193262674447E-11
      0.00000000000000E+00  -5.36134854774409E-09  -6.72222552993156E-07   2.57553757871186E-22  -6.77583901540900E-07
      1.97608809917096E-28
      1.41728631004697E-12
      1.49999529711046E+01   1.49999529710375E+01   0.00000000000000E+00   6.70613799300819E-07   6.35282248430265E-09
     -6.53455173474966E-23   6.76966621785121E-07   1.52742803796717E-28   0.00000000000000E+00   6.71857110936267E-11
      0.00000000000000E+00  -5.08513193668447E-09  -6.71881489848438E-07   1.95915516432411E-22  -6.76966621785122E-07
     -1.51545247957969E-28
      1.46728631004697E-12
      1.49999529943161E+01   1.49999529942490E+01   0.00000000000000E+00   6.70019683654965E-07   6.37743942373522E-09
     -1.71329465937961E-21   6.76397123078698E-07  -9.91552041436361E-29   0.00000000000000E+00   6.71517285408599E-11
      0.00000000000000E+00  -4.85464956294598E-09  -6.71542473515750E-07   8.10003791805589E-22  -6.76397123078695E-07
     -2.43285283120265E-28
      1.51728631004697E-12
      1.49999530167507E+01   1.49999530166836E+01   0.00000000000000E+00   6.69467740820863E-07   6.40169049677064E-09
     -2.40171778531946E-21   6.75869431317631E-07   2.79187765235467E-29   0.00000000000000E+00   6.71192155038885E-11
      0.00000000000000E+00  -4.65020616158105E-09  -6.71219225156050E-07   1.40290819847351E-22  -6.75869431317631E-07
     -6.34825559772846E-29
      1.56728631004697E-12
      1.49999530385025E+01   1.49999530384354E+01   0.00000000000000E+00   6.68952689844994E-07   6.42557133511395E-09
      6.44409409709920E-22   6.75378261180108E-07  -1.16477425972804E-28   0.00000000000000E+00   6.70881719827123E-11
      0.00000000000000E+00  -4.47187250858339E-09  -6.70906388671525E-07   8.91551204478760E-23  -6.75378261180108E-07
      2.75026561108907E-28
      1.61728631004697E-12
      1.49999530597126E+01   1.49999530596455E+01   0.00000000000000E+00   6.68469880780067E-07   6.44907859820758E-09
      1.42720550388510E-21   6.74918959378276E-07  -9.41230503161684E-29   0.00000000000000E+00   6.70584142878571E-11
      0.00000000000000E+00  -4.31072165488950E-09  -6.70608237723388E-07   5.69695103276360E-22  -6.74918959378277E-07
     -8.28369937752372E-29
      1.66728631004697E-12
      1.49999530803722E+01   1.49999530803051E+01   0.00000000000000E+00   6.68015233983719E-07   6.47221170267839E-09
      1.49309106683051E-21   6.74487445686398E-07   4.25071840137535E-29   0.00000000000000E+00   6.70284729035274E-11
      0.00000000000000E+00  -4.17908062880673E-09  -6.70308365057592E-07   3.17494072745037E-22  -6.74487445686399E-07
      1.58706389943212E-28
      1.71728631004697E-12
      1.49999531006267E+01   1.49999531005597E+01   0.00000000000000E+00   6.67585209238160E-07   6.49496958744542E-09
      3.61425516403406E-22   6.74080178825605E-07   5.37569509838134E-29   0.00000000000000E+00   6.69996336560443E-11
      0.00000000000000E+00  -4.05948115209071E-09  -6.70020697673514E-07  -6.13825899704270E-22  -6.74080178825606E-07
      3.70831028208772E-28
      1.76728631004697E-12
      1.49999531204931E+01   1.49999531204262E+01   0.00000000000000E+00   6.67176695622296E-07   6.51735167382741E-09
      1.22036803988434E-21   6.73694047296125E-07  -5.71560741220788E-29   0.00000000000000E+00   6.69711617875099E-11
      0.00000000000000E+00  -3.95936038875611E-09  -6.69734686907369E-07   1.37256227688765E-22  -6.73694047296125E-07
      6.44502778671822E-29
      1.81728631004697E-12
      1.49999531400374E+01   1.49999531399704E+01   0.00000000000000E+00   6.66786991266955E-07   6.53935802589816E-09
      1.48377528026650E-22   6.73326349292853E-07  -1.10658998109794E-28   0.00000000000000E+00   6.69437920558221E-11
      0.00000000000000E+00  -3.86710706810324E-09  -6.69459242224750E-07   7.46875942172179E-22  -6.73326349292853E-07
     -1.60641833723007E-29
      1.86728631004697E-12
      1.49999531592616E+01   1.49999531591947E+01   0.00000000000000E+00   6.66413750647358E-07   6.56098905384279E-09
      1.32243665788994E-21   6.72974739701202E-07   3.10275830948428E-29   0.00000000000000E+00   6.69160549451854E-11
      0.00000000000000E+00  -3.79299384554372E-09  -6.69181745855660E-07   5.95171648880259E-22  -6.72974739701203E-07
     -3.24961010627625E-28
      1.91728631004697E-12
      1.49999531782292E+01   1.49999531781623E+01   0.00000000000000E+00   6.66054955780027E-07   6.58224493601157E-09
     -1.24122730110374E-21   6.72637200716037E-07  -5.70955915039603E-29   0.00000000000000E+00   6.68890525924464E-11
      0.00000000000000E+00  -3.72626585890635E-09  -6.68910934857132E-07  -2.59366918775117E-22  -6.72637200716038E-07
     -4.40507004281402E-28
      1.96728631004697E-12
      1.49999531969498E+01   1.49999531968830E+01   0.00000000000000E+00   6.65708853561939E-07   6.60312579004870E-09
     -1.57524550341305E-21   6.72311979351986E-07   6.04584250713545E-29   0.00000000000000E+00   6.68620502397074E-11
      0.00000000000000E+00  -3.67030364087634E-09  -6.68641675711109E-07   1.92959768821566E-22  -6.72311979351985E-07
     -1.07223585400658E-28
      2.01728631004697E-12
      1.49999532154927E+01   1.49999532154259E+01   0.00000000000000E+00   6.65373924391738E-07   6.62363124275444E-09
     -3.58455265614883E-22   6.71997555634492E-07  -1.23590181863551E-28   0.00000000000000E+00   6.68367010922381E-11
      0.00000000000000E+00  -3.61345549312897E-09  -6.68384100141364E-07   1.96782542763435E-22  -6.71997555634493E-07
      2.33220975465329E-28
      2.06728631004697E-12
      1.49999532337733E+01   1.49999532337065E+01   0.00000000000000E+00   6.65048849051092E-07   6.64376279475002E-09
     -1.49869403990885E-21   6.71692611845841E-07   7.13452963327029E-29   0.00000000000000E+00   6.68096987394991E-11
      0.00000000000000E+00  -3.57749654161418E-09  -6.68115115304227E-07   1.32739147077313E-22  -6.71692611845841E-07
     -4.14572057632145E-28
      2.11728631004697E-12
      1.49999532519036E+01   1.49999532518368E+01   0.00000000000000E+00   6.64732519891655E-07   6.66352107695804E-09
     -4.19682935278291E-22   6.71396040968613E-07   8.18571753617159E-29   0.00000000000000E+00   6.67837985236066E-11
      0.00000000000000E+00  -3.53840829401050E-09  -6.67857632674604E-07   5.90781932538237E-22  -6.71396040968614E-07
     -3.70056850696854E-28
      2.16728631004697E-12
      1.49999532698428E+01   1.49999532697761E+01   0.00000000000000E+00   6.64423955420894E-07   6.68290769688637E-09
      1.40897896495553E-21   6.71106863117782E-07  -1.85076811442922E-30   0.00000000000000E+00   6.67577146182396E-11
      0.00000000000000E+00  -3.50903386877583E-09  -6.67597829249006E-07  -5.74863772106778E-23  -6.71106863117782E-07
      1.01610798439251E-28
      2.21728631004697E-12
      1.49999532876640E+01   1.49999532875973E+01   0.00000000000000E+00   6.64122320388065E-07   6.70192495697736E-09
     -1.84479576247147E-21   6.70824245345041E-07   2.11979479982076E-28   0.00000000000000E+00   6.67329165391936E-11
      0.00000000000000E+00  -3.47541854802520E-09  -6.67348826797014E-07  -1.87747326763973E-22  -6.70824245345039E-07
      8.00499547323321E-28
      2.26728631004697E-12
      1.49999533052810E+01   1.49999533052143E+01   0.00000000000000E+00   6.63826881741139E-07   6.72057738871321E-09
     -5.53546737861025E-23   6.70547459129852E-07   3.80435667966006E-29   0.00000000000000E+00   6.67075673917243E-11
      0.00000000000000E+00  -3.45438833351320E-09  -6.67093070796341E-07   5.78141753956221E-22  -6.70547459129853E-07
     -5.32247039443697E-28
      2.31728631004697E-12
      1.49999533227853E+01   1.49999533227187E+01   0.00000000000000E+00   6.63537035355714E-07   6.73886967109416E-09
     -3.02628051930607E-22   6.70275905026808E-07  -3.29751233982618E-29   0.00000000000000E+00   6.66827693126783E-11
      0.00000000000000E+00  -3.42971347959217E-09  -6.66846191547216E-07  -1.03565741483207E-22  -6.70275905026809E-07
     -3.16445057996525E-28
      2.36728631004697E-12
      1.49999533401213E+01   1.49999533400547E+01   0.00000000000000E+00   6.63252239713464E-07   6.75680812969486E-09
     -3.40093715285834E-22   6.70009047843158E-07  -3.59266751624496E-29   0.00000000000000E+00   6.66574201652090E-11
      0.00000000000000E+00  -3.41622323904610E-09  -6.66592824604112E-07  -1.20865791053272E-22  -6.70009047843158E-07
      2.97477708954532E-28
      2.41728631004697E-12
      1.49999533573663E+01   1.49999533572997E+01   0.00000000000000E+00   6.62972036755354E-07   6.77439990788914E-09
      9.33603827392436E-23   6.69746436663243E-07  -3.63863430601509E-29   0.00000000000000E+00   6.66333568440607E-11
      0.00000000000000E+00  -3.39407259373587E-09  -6.66352364069506E-07   1.45997424722566E-22  -6.69746436663242E-07
      1.61803099990884E-28
      2.46728631004697E-12
      1.49999533744258E+01   1.49999533743592E+01   0.00000000000000E+00   6.62696019261531E-07   6.79165440070940E-09
     -5.39370540915803E-23   6.69487673662240E-07  -7.26638174076884E-29   0.00000000000000E+00   6.66085587650146E-11
      0.00000000000000E+00  -3.38412539520350E-09  -6.66103548267039E-07   5.04324798679740E-22  -6.69487673662242E-07
     -1.68190064464208E-28
      2.51728631004697E-12
      1.49999533913985E+01   1.49999533913319E+01   0.00000000000000E+00   6.62423860435991E-07   6.80858086546233E-09
     -2.03529684713535E-22   6.69232441301453E-07  -5.17368315386521E-29   0.00000000000000E+00   6.65841280649174E-11
      0.00000000000000E+00  -3.37147107898021E-09  -6.65860970222473E-07   4.54588655926224E-22  -6.69232441301453E-07
     -2.84316691251924E-28
      2.56728631004697E-12
      1.49999534082433E+01   1.49999534081768E+01   0.00000000000000E+00   6.62155247459637E-07   6.82518910800288E-09
      3.64868307090102E-22   6.68980436567640E-07   6.72808643951328E-29   0.00000000000000E+00   6.65602484332435E-11
      0.00000000000000E+00  -3.35809125861921E-09  -6.65622345309021E-07   1.98735725255497E-23  -6.68980436567640E-07
      7.23855973643428E-29
      2.61728631004697E-12
      1.49999534249819E+01   1.49999534249153E+01   0.00000000000000E+00   6.61889919250360E-07   6.84149023564830E-09
      4.34466683521165E-22   6.68731409486008E-07  -3.22735250280860E-29   0.00000000000000E+00   6.65371035594672E-11
      0.00000000000000E+00  -3.34445162663617E-09  -6.65386957859373E-07  -3.87002793168634E-23  -6.68731409486009E-07
      4.02572306197415E-28
      2.66728631004697E-12
      1.49999534415551E+01   1.49999534414886E+01   0.00000000000000E+00   6.61627661174802E-07   6.85749617065898E-09
     -1.81961613646877E-21   6.68485157345459E-07  -2.05761866839484E-29   0.00000000000000E+00   6.65128565488444E-11
      0.00000000000000E+00  -3.34057711251344E-09  -6.65144580232943E-07   1.68246617751827E-22  -6.68485157345457E-07
      2.18705147116865E-29
      2.71728631004697E-12
      1.49999534580648E+01   1.49999534579983E+01   0.00000000000000E+00   6.61368295926803E-07   6.87321645686946E-09
      8.82434506990160E-22   6.68241512383673E-07   1.19404784689744E-28   0.00000000000000E+00   6.64891606066448E-11
      0.00000000000000E+00  -3.33125981930303E-09  -6.64910252564369E-07  -1.97402751379789E-22  -6.68241512383673E-07
     -4.53087388850071E-28
      2.76728631004697E-12
      1.49999534744215E+01   1.49999534743551E+01   0.00000000000000E+00   6.61111639292608E-07   6.88866219534073E-09
      5.80954051955119E-22   6.68000301487949E-07   7.66677667271398E-29   0.00000000000000E+00   6.64661994223430E-11
      0.00000000000000E+00  -3.32209815421699E-09  -6.64678203333733E-07  -3.32803099714006E-22  -6.68000301487950E-07
     -3.71024572586752E-28
      2.81728631004697E-12
      1.49999534906864E+01   1.49999534906200E+01   0.00000000000000E+00   6.60857562062635E-07   6.90384345514184E-09
     -1.84155548888399E-22   6.67761405517777E-07   1.62178092223219E-28   0.00000000000000E+00   6.64428708590923E-11
      0.00000000000000E+00  -3.31643760594943E-09  -6.64444967911830E-07   1.54260016892982E-22  -6.67761405517779E-07
      2.65349342209931E-28
      2.86728631004697E-12
      1.49999535068084E+01   1.49999535067419E+01   0.00000000000000E+00   6.60605937682081E-07   6.91876953451255E-09
      1.64653152233759E-21   6.67524707216595E-07   2.37575723969869E-29   0.00000000000000E+00   6.64195422958415E-11
      0.00000000000000E+00  -3.31195461573153E-09  -6.64212752600864E-07   1.45941126023760E-22  -6.67524707216595E-07
      2.42317561230367E-28
      2.91728631004697E-12
      1.49999535228519E+01   1.49999535227855E+01   0.00000000000000E+00   6.60356666744803E-07   6.93344863144372E-09
     -2.08531857064206E-21   6.67290115376244E-07  -1.10078364975856E-30   0.00000000000000E+00   6.63967648010141E-11
      0.00000000000000E+00  -3.30536448527095E-09  -6.63984750890972E-07  -4.47339835875523E-22  -6.67290115376243E-07
     -4.94892974493649E-28
      2.96728631004697E-12
      1.49999535387565E+01   1.49999535386901E+01   0.00000000000000E+00   6.60109644666389E-07   6.94788866064792E-09
     -9.38329226374176E-24   6.67057533327037E-07  -2.45075568616575E-29   0.00000000000000E+00   6.63734362377634E-11
      0.00000000000000E+00  -3.30442787130640E-09  -6.63753105455734E-07   5.61886592414345E-22  -6.67057533327040E-07
     -2.45607815656019E-28
      3.01728631004697E-12