DF-ISE text

Info {
  version   = 1.0
  type      = xyplot
  datasets  = [
    "time"
    "ntype OuterVoltage" "ntype InnerVoltage" "ntype QuasiFermiPotential" "ntype DisplacementCurrent" "ntype eCurrent"
    "ntype hCurrent" "ntype TotalCurrent" "ntype Charge" "ptype OuterVoltage" "ptype InnerVoltage"
    "ptype QuasiFermiPotential" "ptype DisplacementCurrent" "ptype eCurrent" "ptype hCurrent" "ptype TotalCurrent"
    "ptype Charge" ]
  functions = [
    Time
    OuterVoltage InnerVoltage QuasiFermiPotential DisplacementCurrent eCurrent
    hCurrent TotalCurrent Charge OuterVoltage InnerVoltage
    QuasiFermiPotential DisplacementCurrent eCurrent hCurrent TotalCurrent
    Charge ]
}

Data {
      1.00000000000000E-13
      1.49999995912263E+01   1.49999995912257E+01   0.00000000000000E+00  -2.91664567604997E-14   5.84073221769599E-09
      7.60493898623854E-25   5.84070305123923E-09  -1.38868091200310E-29   0.00000000000000E+00   5.94051760258283E-13
      0.00000000000000E+00   4.93306664082215E-11  -5.89003371764745E-09  -1.86044243485041E-24  -5.84070305123923E-09
      1.67173956479816E-28
      2.30000000000000E-13
      1.49999995912866E+01   1.49999995912860E+01   0.00000000000000E+00   1.04154814333948E-14   5.84069258958180E-09
      8.17451832778762E-25   5.84070300506323E-09  -4.63054924316017E-29   0.00000000000000E+00   5.84132528639870E-13
      0.00000000000000E+00  -5.31900125335308E-12  -5.83538400380987E-09  -7.85344412451655E-24  -5.84070300506323E-09
      2.52962502019241E-28
      3.99000000000000E-13
      1.49999995912122E+01   1.49999995912117E+01   0.00000000000000E+00   7.03370511023142E-15   5.84069593192032E-09
      3.62104792507031E-24   5.84070296562543E-09   8.44337348935683E-29   0.00000000000000E+00   5.83948839165455E-13
      0.00000000000000E+00   5.39642297064553E-13  -5.84124260792251E-09  -2.05420206885673E-24  -5.84070296562545E-09
     -1.60690219817502E-28
      6.18700000000000E-13
      1.49999995911614E+01   1.49999995911609E+01   0.00000000000000E+00   1.79884477199080E-15   5.84070115319528E-09
     -3.56619954403225E-24   5.84070295204004E-09  -1.77576966796215E-29   0.00000000000000E+00   5.83581460216625E-13
      0.00000000000000E+00  -4.29567952027299E-12  -5.83640727251977E-09  -1.76370074181612E-24  -5.84070295204005E-09
     -3.39234908503615E-28
      9.04310000000000E-13
      1.49999995911909E+01   1.49999995911903E+01   0.00000000000000E+00   2.61753323736272E-15   5.84070032817074E-09
     -4.01869868759623E-24   5.84070294570397E-09  -3.27573859730348E-29   0.00000000000000E+00   5.84867286537530E-13
      0.00000000000000E+00   7.29322915191227E-12  -5.84799617485590E-09   7.49642086486260E-24  -5.84070294570398E-09
     -1.36448786475566E-29
      1.27560300000000E-12
      1.49999995911683E+01   1.49999995911678E+01   0.00000000000000E+00   4.84805653574095E-16   5.84070246725300E-09
     -5.05765359764408E-24   5.84070295205865E-09   8.87400973036128E-29   0.00000000000000E+00   5.84683597063115E-13
      0.00000000000000E+00   5.69182532018167E-12  -5.84639477737882E-09  -1.25529895568327E-24  -5.84070295205864E-09
      9.42561120760293E-29
      1.75828390000000E-12
      1.49999995911385E+01   1.49999995911379E+01   0.00000000000000E+00  -1.08970786123463E-15   5.84070405536525E-09
      6.95730617936608E-24   5.84070296565739E-09   4.87731832508406E-29   0.00000000000000E+00   5.83765149691040E-13
      0.00000000000000E+00  -2.23513272037416E-12  -5.83846783293702E-09   8.13142081684575E-25  -5.84070296565740E-09
     -6.69663547809161E-29
      2.38576907000000E-12
      1.49999995911539E+01   1.49999995911533E+01   0.00000000000000E+00   4.83644368682805E-16   5.84070248005814E-09
      3.92587835045490E-24   5.84070296370252E-09  -1.15594379748272E-28   0.00000000000000E+00   5.84132528639870E-13
      0.00000000000000E+00   4.53453861433149E-13  -5.84115641756394E-09  -8.31670715212832E-25  -5.84070296370251E-09
     -7.51436047505511E-29
      3.20149979100000E-12
      1.49999995911456E+01   1.49999995911450E+01   0.00000000000000E+00  -4.96313437696015E-16   5.84070346361318E-09
     -4.10308081227017E-24   5.84070296729974E-09   4.96441329517485E-29   0.00000000000000E+00   5.83948839165455E-13
      0.00000000000000E+00  -1.87221150396200E-12  -5.83883075579578E-09  -4.82436256829042E-24  -5.84070296729975E-09
      8.52562984999813E-29
      4.20149979100000E-12
      1.49999995911457E+01   1.49999995911451E+01   0.00000000000000E+00  -2.25955203457459E-16   5.84070319228559E-09
      5.55234380354503E-24   5.84070296633039E-09   5.85955604333016E-29   0.00000000000000E+00   5.83948839165455E-13
      0.00000000000000E+00  -1.69939313167010E-12  -5.83900357319873E-09   2.85269573507515E-24  -5.84070296633040E-09
      4.01120723362568E-29
      5.20149979100000E-12
      1.49999995911458E+01   1.49999995911452E+01   0.00000000000000E+00  -2.89836803001325E-16   5.84070325605197E-09
     -6.98683992300196E-24   5.84070296621516E-09  -3.33380191069734E-29   0.00000000000000E+00   5.83948839165455E-13
      0.00000000000000E+00  -1.66435458097109E-12  -5.83903861163420E-09  -9.96078139942378E-24  -5.84070296621518E-09
      2.40672434017541E-28
      6.20149979100000E-12
      1.49999995911456E+01   1.49999995911450E+01   0.00000000000000E+00  -2.74403875666020E-16   5.84070324064373E-09
      6.44362999541349E-24   5.84070296623986E-09   8.64175647678585E-29   0.00000000000000E+00   5.83948839165455E-13
      0.00000000000000E+00  -1.72342594176202E-12  -5.83897954029809E-09  -7.95854870722933E-24  -5.84070296623986E-09
      2.73574978274060E-28
      7.20149979100000E-12
      1.49999995911458E+01   1.49999995911452E+01   0.00000000000000E+00  -2.54483432954309E-16   5.84070322064884E-09
     -7.35284738877516E-24   5.84070296616540E-09   1.22223274694071E-28   0.00000000000000E+00   5.83948839165455E-13
      0.00000000000000E+00  -1.68792244455373E-12  -5.83901504372085E-09   3.13747716540782E-24  -5.84070296616541E-09
      2.08060206327991E-28
      8.20149979100000E-12
      1.49999995911458E+01   1.49999995911452E+01   0.00000000000000E+00  -2.54670230406262E-16   5.84070322088741E-09
     -1.01015951000286E-23   5.84070296621717E-09   7.17565781359094E-29   0.00000000000000E+00   5.83948839165455E-13
      0.00000000000000E+00  -1.66737466303064E-12  -5.83903559155414E-09  -1.31712956611711E-24  -5.84070296621717E-09
      1.46222777563532E-28
      9.20149979100000E-12
      1.49999995911457E+01   1.49999995911451E+01   0.00000000000000E+00  -2.76027669648549E-16   5.84070324226591E-09
     -9.04259943537074E-24   5.84070296623823E-09  -4.29184658169599E-29   0.00000000000000E+00   5.83948839165455E-13
      0.00000000000000E+00  -1.69940180079526E-12  -5.83900356443745E-09   3.88571083162284E-24  -5.84070296623824E-09
      1.75254434260461E-28
      1.02014997910000E-11
      1.49999995911459E+01   1.49999995911453E+01   0.00000000000000E+00  -2.45352847467472E-16   5.84070321152315E-09
      7.88129044454569E-24   5.84070296617031E-09   7.88693340266570E-30   0.00000000000000E+00   5.83948839165455E-13
      0.00000000000000E+00  -1.66295150265018E-12  -5.83904001466766E-09  -8.11753567230712E-24  -5.84070296617032E-09
      2.69026685391542E-28
      1.12014997910000E-11
      1.49999995911457E+01   1.49999995911451E+01   0.00000000000000E+00  -2.86719236414421E-16   5.84070325293513E-09
      7.85808536026035E-24   5.84070296621590E-09  -1.43706700649798E-29   0.00000000000000E+00   5.83948839165455E-13
      0.00000000000000E+00  -1.69256353586796E-12  -5.83901040268003E-09   6.79544381510582E-24  -5.84070296621589E-09
      1.64899810038556E-28
      1.22014997910000E-11
      1.49999995911458E+01   1.49999995911452E+01   0.00000000000000E+00  -2.73184112477206E-16   5.84070323936360E-09
      2.47345102950477E-24   5.84070296617949E-09   2.52091552318333E-29   0.00000000000000E+00   5.83948839165455E-13
      0.00000000000000E+00  -1.66882534139178E-12  -5.83903414083809E-09  -1.79012268859360E-25  -5.84070296617948E-09
      2.60220416193473E-28
      1.32014997910000E-11
      1.49999995911458E+01   1.49999995911452E+01   0.00000000000000E+00  -2.73973932404427E-16   5.84070324016730E-09
      1.40538428644442E-23   5.84070296619338E-09   6.53212275680901E-30   0.00000000000000E+00   5.83948839165455E-13
      0.00000000000000E+00  -1.68044024839793E-12  -5.83902252594499E-09   1.89052011202767E-24  -5.84070296619338E-09
     -1.07804218534596E-28
      1.42014997910000E-11
      1.49999995911457E+01   1.49999995911451E+01   0.00000000000000E+00  -2.47989196703535E-16   5.84070321421580E-09
     -2.58209301502246E-24   5.84070296622661E-09   1.93544377979526E-31   0.00000000000000E+00   5.83948839165455E-13
      0.00000000000000E+00  -1.68686755232186E-12  -5.83901609867429E-09   3.83217628603427E-24  -5.84070296622661E-09
      2.24269547983776E-28
      1.52014997910000E-11
      1.49999995911456E+01   1.49999995911450E+01   0.00000000000000E+00  -2.85670539149293E-16   5.84070325192858E-09
     -1.03199338476225E-23   5.84070296625803E-09   2.80639348070313E-29   0.00000000000000E+00   5.83948839165455E-13
      0.00000000000000E+00  -1.71431685598728E-12  -5.83898864940205E-09   7.97786069776216E-24  -5.84070296625803E-09
      2.44688479860616E-28
      1.62014997910000E-11
      1.49999995911457E+01   1.49999995911451E+01   0.00000000000000E+00  -2.70395393696057E-16   5.84070323658486E-09
     -7.32014931546401E-24   5.84070296618946E-09  -2.07092484438093E-29   0.00000000000000E+00   5.83948839165455E-13
      0.00000000000000E+00  -1.70605830725031E-12  -5.83899690788221E-09  -5.18384154399790E-24  -5.84070296618947E-09
      1.22416819072050E-29
      1.72014997910000E-11
      1.49999995911458E+01   1.49999995911452E+01   0.00000000000000E+00  -2.65248303349459E-16   5.84070323142352E-09
     -5.01651731186554E-24   5.84070296617521E-09  -4.16604273600930E-29   0.00000000000000E+00   5.83948839165455E-13
      0.00000000000000E+00  -1.67536551027796E-12  -5.83902760066494E-09  -9.77646228600485E-24  -5.84070296617522E-09
      1.06981654928183E-28
      1.82014997910000E-11
      1.49999995911458E+01   1.49999995911452E+01   0.00000000000000E+00  -2.54230220694724E-16   5.84070322045520E-09
     -2.41543831879144E-25   5.84070296622498E-09  -7.16598059469196E-29   0.00000000000000E+00   5.83948839165455E-13
      0.00000000000000E+00  -1.68732861625432E-12  -5.83901563760873E-09   2.14210080209557E-24  -5.84070296622498E-09
      5.26924569049260E-29
      1.92014997910000E-11
      1.49999995911456E+01   1.49999995911451E+01   0.00000000000000E+00  -2.80142997479877E-16   5.84070324636687E-09
      3.39638051812595E-24   5.84070296622388E-09  -4.56764732031682E-29   0.00000000000000E+00   5.83948839165455E-13
      0.00000000000000E+00  -1.70189536417322E-12  -5.83900107085971E-09  -8.69819737810628E-24  -5.84070296622389E-09
      1.29190872301334E-28
      2.02014997910000E-11
      1.49999995911457E+01   1.49999995911451E+01   0.00000000000000E+00  -2.59950530560224E-16   5.84070322617297E-09
      1.57267184861049E-24   5.84070296622244E-09   4.50958400692296E-29   0.00000000000000E+00   5.83948839165455E-13
      0.00000000000000E+00  -1.67966380038963E-12  -5.83902330242204E-09  -1.89433595163772E-24  -5.84070296622243E-09
      1.68431994936683E-28
      2.12014997910000E-11
      1.49999995911457E+01   1.49999995911451E+01   0.00000000000000E+00  -2.81395229290130E-16   5.84070324757318E-09
     -6.12930658100308E-24   5.84070296617794E-09  -1.66932026007341E-29   0.00000000000000E+00   5.83948839165455E-13
      0.00000000000000E+00  -1.68706342182484E-12  -5.83901590275612E-09   3.92498014229187E-24  -5.84070296617794E-09
      2.10624669336219E-28
      2.22014997910000E-11
      1.49999995911459E+01   1.49999995911453E+01   0.00000000000000E+00  -2.58587319379600E-16   5.84070322479123E-09
     -6.63559932904670E-24   5.84070296620390E-09   4.00153001472671E-29   0.00000000000000E+00   5.83948839165455E-13
      0.00000000000000E+00  -1.69947201697414E-12  -5.83900349418696E-09   4.58380861949003E-24  -5.84070296620393E-09
      2.14737487368284E-28
      2.32014997910000E-11
      1.49999995911458E+01   1.49999995911452E+01   0.00000000000000E+00  -2.79650722155373E-16   5.84070324583946E-09
     -3.44068113357977E-24   5.84070296618873E-09  -3.19348223666218E-30   0.00000000000000E+00   5.83948839165455E-13
      0.00000000000000E+00  -1.68622185261468E-12  -5.83901674433613E-09  -1.89131325455696E-24  -5.84070296618875E-09
      2.52091552318333E-28
      2.42014997910000E-11
      1.49999995911457E+01   1.49999995911451E+01   0.00000000000000E+00  -2.58091807021782E-16   5.84070322431205E-09
      5.29814265296480E-24   5.84070296622025E-09   8.39498739486195E-29   0.00000000000000E+00   5.83948839165455E-13
      0.00000000000000E+00  -1.71793066907647E-12  -5.83898503555118E-09   4.54848287527992E-24  -5.84070296622025E-09
      3.90620940857179E-28
      2.52014997910000E-11
      1.49999995911457E+01   1.49999995911451E+01   0.00000000000000E+00  -2.75106209286471E-16   5.84070324129776E-09
      6.49953315300997E-24   5.84070296619155E-09   3.97249835802978E-29   0.00000000000000E+00   5.83948839165455E-13
      0.00000000000000E+00  -1.67492448246382E-12  -5.83902804170908E-09  -1.50543303618217E-23  -5.84070296619156E-09
      1.89044471191502E-28
