DF-ISE text

Info {
  version   = 1.0
  type      = xyplot
  datasets  = [
    "time"
    "ntype OuterVoltage" "ntype InnerVoltage" "ntype QuasiFermiPotential" "ntype DisplacementCurrent" "ntype eCurrent"
    "ntype hCurrent" "ntype TotalCurrent" "ntype Charge" "ptype OuterVoltage" "ptype InnerVoltage"
    "ptype QuasiFermiPotential" "ptype DisplacementCurrent" "ptype eCurrent" "ptype hCurrent" "ptype TotalCurrent"
    "ptype Charge" ]
  functions = [
    Time
    OuterVoltage InnerVoltage QuasiFermiPotential DisplacementCurrent eCurrent
    hCurrent TotalCurrent Charge OuterVoltage InnerVoltage
    QuasiFermiPotential DisplacementCurrent eCurrent hCurrent TotalCurrent
    Charge ]
}

Data {
      0.00000000000000E+00
      0.00000000000000E+00   0.00000000000000E+00   0.00000000000000E+00   0.00000000000000E+00  -1.30096710781356E-22
      1.09599389730026E-16   1.09599259633315E-16  -1.82572831052812E-27   0.00000000000000E+00   0.00000000000000E+00
      0.00000000000000E+00   0.00000000000000E+00  -1.81165706503668E-24  -2.47186398302843E-19  -2.47188209959908E-19
     -3.74992232335332E-29
      0.00000000000000E+00
      0.00000000000000E+00   0.00000000000000E+00   0.00000000000000E+00   0.00000000000000E+00   2.30567876233139E-22
      1.16181818198552E-16   1.16182048766428E-16   1.19470105917312E-27   0.00000000000000E+00   0.00000000000000E+00
      0.00000000000000E+00   0.00000000000000E+00   3.14126727372387E-24  -2.37022475916327E-19  -2.37019334649054E-19
     -3.13541892326833E-29
      0.00000000000000E+00
      0.00000000000000E+00   0.00000000000000E+00   0.00000000000000E+00   0.00000000000000E+00   1.92830540081598E-22
     -3.72393174679036E-18  -3.72373891625027E-18  -8.87884833981077E-30   0.00000000000000E+00   0.00000000000000E+00
      0.00000000000000E+00   0.00000000000000E+00   2.88173523680176E-24  -3.79928001388909E-20  -3.79899184036541E-20
     -1.30642455136180E-29
      1.00000000000000E-02
      2.00000000000000E-02   2.00000000000000E-02   0.00000000000000E+00   0.00000000000000E+00   4.97247650233776E-10
     -5.06512491197112E-11   4.46596401114064E-10  -3.67976248633574E-28   0.00000000000000E+00   0.00000000000000E+00
      0.00000000000000E+00   0.00000000000000E+00  -4.10443731286343E-15  -4.46592297667789E-10  -4.46596402105102E-10
      9.96753546594560E-30
      2.00000000000000E-02
      4.00000000000000E-02   4.00000000000000E-02   0.00000000000000E+00   0.00000000000000E+00   7.31586383559842E-10
      8.30298976100022E-11   8.14616281169844E-10  -3.34589843432106E-28   0.00000000000000E+00   0.00000000000000E+00
      0.00000000000000E+00   0.00000000000000E+00  -6.18728464400427E-15  -8.14610093948889E-10  -8.14616281233533E-10
     -7.25791417423224E-30
      3.00000000000000E-02
      6.00000000000000E-02   6.00000000000000E-02   0.00000000000000E+00   0.00000000000000E+00   9.98449502331940E-10
      1.30108293888936E-10   1.12855779622088E-09  -4.69828977545300E-29   0.00000000000000E+00   0.00000000000000E+00
      0.00000000000000E+00   0.00000000000000E+00  -7.20488302761595E-15  -1.12855059155850E-09  -1.12855779644153E-09
     -7.93531949716058E-30
      4.00000000000000E-02
      8.00000000000000E-02   8.00000000000000E-02   0.00000000000000E+00   0.00000000000000E+00   1.24664427904360E-09
      1.60122275167752E-10   1.40676655421135E-09   4.95401028485845E-28   0.00000000000000E+00   0.00000000000000E+00
      0.00000000000000E+00   0.00000000000000E+00  -7.68257121760484E-15  -1.40675887183954E-09  -1.40676655441076E-09
      2.27414644125943E-30
      5.00000000000000E-02
      1.00000000000000E-01   1.00000000000000E-01   0.00000000000000E+00   0.00000000000000E+00   1.47491900620893E-09
      1.86813111150328E-10   1.66173211735925E-09   8.27644146334949E-29   0.00000000000000E+00   0.00000000000000E+00
      0.00000000000000E+00   0.00000000000000E+00  -7.89575174370542E-15  -1.66172422197256E-09  -1.66173211772431E-09
      1.70802913566932E-29
      6.00000000000000E-02
      1.20000000000000E-01   1.20000000000000E-01   0.00000000000000E+00   0.00000000000000E+00   1.68940733082355E-09
      2.12270979338548E-10   1.90167831016210E-09   2.39196658135447E-28   0.00000000000000E+00   0.00000000000000E+00
      0.00000000000000E+00   0.00000000000000E+00  -7.97573932358867E-15  -1.90167033426678E-09  -1.90167831000611E-09
     -2.32253253575432E-29
      7.00000000000000E-02
      1.40000000000000E-01   1.40000000000000E-01   0.00000000000000E+00   0.00000000000000E+00   1.89526932912612E-09
      2.36311194859671E-10   2.13158052398579E-09  -7.91669085078005E-28   0.00000000000000E+00   0.00000000000000E+00
      0.00000000000000E+00   0.00000000000000E+00  -7.99331126278772E-15  -2.13157253050560E-09  -2.13158052381687E-09
      2.51607691373384E-30
      8.00000000000000E-02
      1.60000000000000E-01   1.60000000000000E-01   0.00000000000000E+00   0.00000000000000E+00   2.09514334649749E-09
      2.59314782429289E-10   2.35445812892678E-09   4.53885759409237E-28   0.00000000000000E+00   0.00000000000000E+00
      0.00000000000000E+00   0.00000000000000E+00  -7.98100649439130E-15  -2.35445014749076E-09  -2.35445812849726E-09
      8.22563606412987E-30
      9.00000000000000E-02
      1.80000000000000E-01   1.80000000000000E-01   0.00000000000000E+00   0.00000000000000E+00   2.29057724537979E-09
      2.81618431355144E-10   2.57219567673494E-09  -4.59474353323395E-28   0.00000000000000E+00   0.00000000000000E+00
      0.00000000000000E+00   0.00000000000000E+00  -7.95456484211707E-15  -2.57218772156369E-09  -2.57219567612853E-09
      7.20952807973735E-30
      1.00000000000000E-01
      2.00000000000000E-01   2.00000000000000E-01   0.00000000000000E+00   0.00000000000000E+00   2.48250732077727E-09
      3.03439263454737E-10   2.78594658423201E-09   4.61361411008696E-28   0.00000000000000E+00   0.00000000000000E+00
      0.00000000000000E+00   0.00000000000000E+00  -7.92149140067768E-15  -2.78593866285230E-09  -2.78594658434370E-09
      8.90304138705821E-30
      1.10000000000000E-01
      2.20000000000000E-01   2.20000000000000E-01   0.00000000000000E+00   0.00000000000000E+00   2.67153875297509E-09
      3.24925636235181E-10   2.99646438921027E-09   4.28845955508135E-28   0.00000000000000E+00   0.00000000000000E+00
      0.00000000000000E+00   0.00000000000000E+00  -7.88532701029934E-15  -2.99645650364313E-09  -2.99646438897014E-09
      9.96753546594560E-30
      1.20000000000000E-01
      2.40000000000000E-01   2.40000000000000E-01   0.00000000000000E+00   0.00000000000000E+00   2.85812425275967E-09
      3.46206463357553E-10   3.20433071611722E-09   1.47577588209389E-30   0.00000000000000E+00   0.00000000000000E+00
      0.00000000000000E+00   0.00000000000000E+00  -7.84772088486443E-15  -3.20432286849453E-09  -3.20433071621541E-09
     -2.29350087905739E-29
      1.30000000000000E-01
      2.60000000000000E-01   2.60000000000000E-01   0.00000000000000E+00   0.00000000000000E+00   3.04256381796929E-09
      3.67390987792296E-10   3.40995480576159E-09  -3.21138509162529E-28   0.00000000000000E+00   0.00000000000000E+00
      0.00000000000000E+00   0.00000000000000E+00  -7.80942984651358E-15  -3.40994699607590E-09  -3.40995480550574E-09
     -1.12739600173074E-29
      1.40000000000000E-01
      2.80000000000000E-01   2.80000000000000E-01   0.00000000000000E+00   0.00000000000000E+00   3.22511238734456E-09
      3.88534852311071E-10   3.61364723965563E-09  -2.02834508122544E-28   0.00000000000000E+00   0.00000000000000E+00
      0.00000000000000E+00   0.00000000000000E+00  -7.77078601616814E-15  -3.61363946875961E-09  -3.61364723954562E-09
     -1.46609866319491E-29
      1.50000000000000E-01
      3.00000000000000E-01   3.00000000000000E-01   0.00000000000000E+00   0.00000000000000E+00   3.40590828295905E-09
      4.09790945284616E-10   3.81569922824366E-09  -2.29616211425460E-28   0.00000000000000E+00   0.00000000000000E+00
      0.00000000000000E+00   0.00000000000000E+00  -7.73191795326097E-15  -3.81569149639951E-09  -3.81569922831746E-09
     -1.16610487732665E-29
      1.60000000000000E-01
      3.20000000000000E-01   3.20000000000000E-01   0.00000000000000E+00   0.00000000000000E+00   3.58501417558138E-09
      4.31391394205859E-10   4.01640556978724E-09  -1.71625477173345E-28   0.00000000000000E+00   0.00000000000000E+00
      0.00000000000000E+00   0.00000000000000E+00  -7.69285626790921E-15  -4.01639787701350E-09  -4.01640556986977E-09
      1.81447854355806E-29
      1.70000000000000E-01
      3.40000000000000E-01   3.40000000000000E-01   0.00000000000000E+00   0.00000000000000E+00   3.76288376846964E-09
      4.53176801973175E-10   4.21606057044282E-09  -7.66435736798924E-28   0.00000000000000E+00   0.00000000000000E+00
      0.00000000000000E+00   0.00000000000000E+00  -7.65358638577628E-15  -4.21605291688625E-09  -4.21606057047263E-09
     -3.33864052014683E-30
      1.80000000000000E-01
      3.60000000000000E-01   3.60000000000000E-01   0.00000000000000E+00   0.00000000000000E+00   3.93911232988319E-09
      4.75866339136413E-10   4.41497866901960E-09   1.91342810680009E-28   0.00000000000000E+00   0.00000000000000E+00
      0.00000000000000E+00   0.00000000000000E+00  -7.61406799254673E-15  -4.41497105490893E-09  -4.41497866897693E-09
      2.92735871694033E-29
      1.90000000000000E-01
      3.80000000000000E-01   3.80000000000000E-01   0.00000000000000E+00   0.00000000000000E+00   4.11466747314891E-09
      4.98875243292027E-10   4.61354271644094E-09   2.59543010870545E-28   0.00000000000000E+00   0.00000000000000E+00
      0.00000000000000E+00   0.00000000000000E+00  -7.57423492547436E-15  -4.61353514224200E-09  -4.61354271647692E-09
      5.03215382746768E-30
      2.00000000000000E-01
      4.00000000000000E-01   4.00000000000000E-01   0.00000000000000E+00   0.00000000000000E+00   4.28871356811409E-09
      5.23486660525848E-10   4.81220022863994E-09   2.22285718109486E-28   0.00000000000000E+00   0.00000000000000E+00
      0.00000000000000E+00   0.00000000000000E+00  -7.53400181258090E-15  -4.81219269476562E-09  -4.81220022876744E-09
      1.33545620805873E-29
      2.10000000000000E-01
      4.20000000000000E-01   4.20000000000000E-01   0.00000000000000E+00   0.00000000000000E+00   4.46271406487848E-09
      5.49531450488254E-10   5.01224551536674E-09  -3.47387965426002E-28   0.00000000000000E+00   0.00000000000000E+00
      0.00000000000000E+00   0.00000000000000E+00  -7.49283484316667E-15  -5.01223802256475E-09  -5.01224551539960E-09
      1.21449097182153E-29
      2.20000000000000E-01
      4.40000000000000E-01   4.40000000000000E-01   0.00000000000000E+00   0.00000000000000E+00   4.63533414646529E-09
      5.76581136926532E-10   5.21191528339182E-09   4.02040059157971E-28   0.00000000000000E+00   0.00000000000000E+00
      0.00000000000000E+00   0.00000000000000E+00  -7.45190454128109E-15  -5.21190783157955E-09  -5.21191528348409E-09
      5.75794524489091E-30
      2.30000000000000E-01
      4.60000000000000E-01   4.60000000000000E-01   0.00000000000000E+00   0.00000000000000E+00   4.80864949839448E-09
      6.06337363695556E-10   5.41498686209003E-09  -4.99828356132127E-29   0.00000000000000E+00   0.00000000000000E+00
      0.00000000000000E+00   0.00000000000000E+00  -7.40933043621926E-15  -5.41497945252969E-09  -5.41498686186013E-09
      6.09664790635508E-30
      2.40000000000000E-01
      4.80000000000000E-01   4.80000000000000E-01   0.00000000000000E+00   0.00000000000000E+00   4.98131508357863E-09
      6.38576547346033E-10   5.61989163092466E-09   6.36761003552641E-28   0.00000000000000E+00   0.00000000000000E+00
      0.00000000000000E+00   0.00000000000000E+00  -7.36626297019915E-15  -5.61988426461929E-09  -5.61989163088226E-09
      3.77411537060076E-30
      2.50000000000000E-01
      5.00000000000000E-01   5.00000000000000E-01   0.00000000000000E+00   0.00000000000000E+00   5.15403024771020E-09
      6.74292258728916E-10   5.82832250643912E-09  -4.20886442963727E-28   0.00000000000000E+00   0.00000000000000E+00
      0.00000000000000E+00   0.00000000000000E+00  -7.32206174291730E-15  -5.82831518446082E-09  -5.82832250652256E-09
     -1.19029792457409E-29
      2.60000000000000E-01
      5.20000000000000E-01   5.20000000000000E-01   0.00000000000000E+00   0.00000000000000E+00   5.32693798612369E-09
      7.14431323060666E-10   6.04136930918435E-09  -1.30804548552738E-27   0.00000000000000E+00   0.00000000000000E+00
      0.00000000000000E+00   0.00000000000000E+00  -7.27648235945446E-15  -6.04136203261054E-09  -6.04136930909290E-09
     -7.98370559165546E-30
      2.70000000000000E-01
      5.40000000000000E-01   5.40000000000000E-01   0.00000000000000E+00   0.00000000000000E+00   5.50014867100574E-09
      7.60189390594168E-10   6.26033806159991E-09   3.78669575516943E-28   0.00000000000000E+00   0.00000000000000E+00
      0.00000000000000E+00   0.00000000000000E+00  -7.22922782100245E-15  -6.26033083238304E-09  -6.26033806161086E-09
      1.08868712613484E-29
      2.80000000000000E-01
      5.60000000000000E-01   5.60000000000000E-01   0.00000000000000E+00   0.00000000000000E+00   5.67374266822894E-09
      8.13075034319890E-10   6.48681770254883E-09  -4.54272848165196E-28   0.00000000000000E+00   0.00000000000000E+00
      0.00000000000000E+00   0.00000000000000E+00  -7.17993233164376E-15  -6.48681052266285E-09  -6.48681770259518E-09
      1.47093727264440E-29
      2.90000000000000E-01
      5.80000000000000E-01   5.80000000000000E-01   0.00000000000000E+00   0.00000000000000E+00   5.84776769133091E-09
      8.75015151410266E-10   6.72278284274118E-09   2.59784941343019E-28   0.00000000000000E+00   0.00000000000000E+00
      0.00000000000000E+00   0.00000000000000E+00  -7.12813677716321E-15  -6.72277571455844E-09  -6.72278284269522E-09
      1.20965236237204E-30
      3.00000000000000E-01
      6.00000000000000E-01   6.00000000000000E-01   0.00000000000000E+00   0.00000000000000E+00   6.02232429006503E-09
      9.47775428866434E-10   6.97009971893147E-09   1.23742598061210E-27   0.00000000000000E+00   0.00000000000000E+00
      0.00000000000000E+00   0.00000000000000E+00  -7.07360762924349E-15  -6.97009264530822E-09  -6.97009971891585E-09
     -3.04832395317754E-30
      3.10000000000000E-01
      6.20000000000000E-01   6.20000000000000E-01   0.00000000000000E+00   0.00000000000000E+00   6.19686858312786E-09
      1.03636471553782E-09   7.23323329866567E-09   1.28465080883911E-29   0.00000000000000E+00   0.00000000000000E+00
      0.00000000000000E+00   0.00000000000000E+00  -7.01477914680683E-15  -7.23322628383884E-09  -7.23323329861799E-09
     -7.25791417423224E-30
      3.20000000000000E-01
      6.40000000000000E-01   6.40000000000000E-01   0.00000000000000E+00   0.00000000000000E+00   6.37267597096363E-09
      1.14252107991746E-09   7.51519705088109E-09   2.88864984134443E-28   0.00000000000000E+00   0.00000000000000E+00
      0.00000000000000E+00   0.00000000000000E+00  -6.95134130424672E-15  -7.51519009954956E-09  -7.51519705089087E-09
      8.27402215862475E-30
      3.30000000000000E-01
      6.60000000000000E-01   6.60000000000000E-01   0.00000000000000E+00   0.00000000000000E+00   6.54806415965678E-09
      1.27325182329706E-09   7.82131598295384E-09   3.20654648217580E-28   0.00000000000000E+00   0.00000000000000E+00
      0.00000000000000E+00   0.00000000000000E+00  -6.88186082788465E-15  -7.82130910107891E-09  -7.82131598293974E-09
      2.22576034676455E-30
      3.40000000000000E-01
      6.80000000000000E-01   6.80000000000000E-01   0.00000000000000E+00   0.00000000000000E+00   6.72434255432303E-09
      1.43297636070297E-09   8.15731891502601E-09   2.53325397727952E-28   0.00000000000000E+00   0.00000000000000E+00
      0.00000000000000E+00   0.00000000000000E+00  -6.80512745571052E-15  -8.15731210993710E-09  -8.15731891506455E-09
     -1.35481064585668E-30
      3.50000000000000E-01
      7.00000000000000E-01   7.00000000000000E-01   0.00000000000000E+00   0.00000000000000E+00   6.90000550528894E-09
      1.63143181754455E-09   8.53143732283349E-09  -1.81859136159012E-28   0.00000000000000E+00   0.00000000000000E+00
      0.00000000000000E+00   0.00000000000000E+00  -6.71909636989793E-15  -8.53143060368576E-09  -8.53143732278213E-09
     -1.45158283484645E-31
      3.60000000000000E-01
      7.20000000000000E-01   7.20000000000000E-01   0.00000000000000E+00   0.00000000000000E+00   7.07667648701804E-09
      1.87702225180816E-09   8.95369873882620E-09  -3.59024821152021E-28   0.00000000000000E+00   0.00000000000000E+00
      0.00000000000000E+00   0.00000000000000E+00  -6.62136046069472E-15  -8.95369211738725E-09  -8.95369873874771E-09
      6.82243932377830E-30
      3.70000000000000E-01
      7.40000000000000E-01   7.40000000000000E-01   0.00000000000000E+00   0.00000000000000E+00   7.25282948257737E-09
      2.18389091850909E-09   9.43672040108646E-09   8.16708888979106E-28   0.00000000000000E+00   0.00000000000000E+00
      0.00000000000000E+00   0.00000000000000E+00  -6.50889614538640E-15  -9.43671389213931E-09  -9.43672040103546E-09
      1.26287706631641E-29
      3.80000000000000E-01
      7.60000000000000E-01   7.60000000000000E-01   0.00000000000000E+00   0.00000000000000E+00   7.43000394991417E-09
      2.56632785754480E-09   9.99633180745897E-09  -1.03739786597026E-27   0.00000000000000E+00   0.00000000000000E+00
      0.00000000000000E+00   0.00000000000000E+00  -6.37790534640905E-15  -9.99632542952827E-09  -9.99633180743362E-09
      7.98370559165546E-30
      3.90000000000000E-01
      7.80000000000000E-01   7.80000000000000E-01   0.00000000000000E+00   0.00000000000000E+00   7.60697697522812E-09
      3.04534713980825E-09   1.06523241150364E-08  -1.21715220701875E-28   0.00000000000000E+00   0.00000000000000E+00
      0.00000000000000E+00   0.00000000000000E+00  -6.22363517145339E-15  -1.06523178914085E-08  -1.06523241150436E-08
      2.11447232942632E-29
      4.00000000000000E-01
      8.00000000000000E-01   8.00000000000000E-01   0.00000000000000E+00   0.00000000000000E+00   7.78523462882251E-09
      3.64412444778026E-09   1.14293590766028E-08  -3.30839921108753E-28   0.00000000000000E+00   0.00000000000000E+00
      0.00000000000000E+00   0.00000000000000E+00  -6.04015873325348E-15  -1.14293530364519E-08  -1.14293590766107E-08
      4.64506507150863E-30
      4.10000000000000E-01
      8.20000000000000E-01   8.20000000000000E-01   0.00000000000000E+00   0.00000000000000E+00   7.96393474799471E-09
      4.39414551204381E-09   1.23580802600385E-08   3.01663106128339E-28   0.00000000000000E+00   0.00000000000000E+00
      0.00000000000000E+00   0.00000000000000E+00  -5.82010696246731E-15  -1.23580744399472E-08  -1.23580802600541E-08
     -1.42255117814952E-29
      4.20000000000000E-01
      8.40000000000000E-01   8.40000000000000E-01   0.00000000000000E+00   0.00000000000000E+00   8.14462307605637E-09
      5.33181858481084E-09   1.34764416608672E-08  -2.04068353532163E-28   0.00000000000000E+00   0.00000000000000E+00
      0.00000000000000E+00   0.00000000000000E+00  -5.55434798386838E-15  -1.34764361065738E-08  -1.34764416609217E-08
     -1.06449407888739E-30
      4.30000000000000E-01
      8.60000000000000E-01   8.60000000000000E-01   0.00000000000000E+00   0.00000000000000E+00   8.32695094606846E-09
      6.50434938198527E-09   1.48313003280537E-08   4.64385541914626E-28   0.00000000000000E+00   0.00000000000000E+00
      0.00000000000000E+00   0.00000000000000E+00  -5.23160270878502E-15  -1.48312950964976E-08  -1.48313003281004E-08
      1.74189940181574E-30
      4.40000000000000E-01
      8.80000000000000E-01   8.80000000000000E-01   0.00000000000000E+00   0.00000000000000E+00   8.51268717269484E-09
      7.96763902384725E-09   1.64803261965421E-08   6.37390022781075E-28   0.00000000000000E+00   0.00000000000000E+00
      0.00000000000000E+00   0.00000000000000E+00  -4.83798380451212E-15  -1.64803213585030E-08  -1.64803261964868E-08
     -6.77405322928342E-31
      4.50000000000000E-01
      9.00000000000000E-01   9.00000000000000E-01   0.00000000000000E+00   0.00000000000000E+00   8.70215870607773E-09
      9.79212809386501E-09   1.84942867999427E-08  -8.32240825311963E-29   0.00000000000000E+00   0.00000000000000E+00
      0.00000000000000E+00   0.00000000000000E+00  -4.35644392760371E-15  -1.84942824434664E-08  -1.84942867999104E-08
     -1.33545620805873E-29
      4.60000000000000E-01
      9.20000000000000E-01   9.20000000000000E-01   0.00000000000000E+00   0.00000000000000E+00   8.89764138878345E-09
      1.20621108309628E-08   2.09597522197463E-08  -2.26882397086500E-28   0.00000000000000E+00   0.00000000000000E+00
      0.00000000000000E+00   0.00000000000000E+00  -3.76612276297768E-15  -2.09597484535757E-08  -2.09597522196985E-08
      1.60641833723007E-29
      4.70000000000000E-01
      9.40000000000001E-01   9.40000000000001E-01   0.00000000000000E+00   0.00000000000000E+00   9.10042605075511E-09
      1.48818743138219E-08   2.39823003645770E-08  -3.26073890801007E-28   0.00000000000000E+00   0.00000000000000E+00
      0.00000000000000E+00   0.00000000000000E+00  -3.04157369153229E-15  -2.39822973230432E-08  -2.39823003646168E-08
      2.12898815777479E-30
      4.80000000000000E-01
      9.60000000000001E-01   9.60000000000001E-01   0.00000000000000E+00   0.00000000000000E+00   9.31372198293510E-09
      1.83765770260910E-08   2.76902990090261E-08   6.25148340873870E-28   0.00000000000000E+00   0.00000000000000E+00
      0.00000000000000E+00   0.00000000000000E+00  -2.15185206221045E-15  -2.76902968571500E-08  -2.76902990090020E-08
     -1.19997514347306E-29
      4.90000000000000E-01
      9.80000000000001E-01   9.80000000000001E-01   0.00000000000000E+00   0.00000000000000E+00   9.54027436943655E-09
      2.26990679975951E-08   3.22393423670317E-08   2.83784444212480E-29   0.00000000000000E+00   0.00000000000000E+00
      0.00000000000000E+00   0.00000000000000E+00  -1.05944620313789E-15  -3.22393413075779E-08  -3.22393423670241E-08
      7.64500293019129E-30
      5.00000000000000E-01
      1.00000000000000E+00   1.00000000000000E+00   0.00000000000000E+00   0.00000000000000E+00   9.78486391681251E-09
      2.80325828555006E-08   3.78174467723131E-08   1.10779963346031E-28   0.00000000000000E+00   0.00000000000000E+00
      0.00000000000000E+00   0.00000000000000E+00   2.80973497798164E-16  -3.78174470532739E-08  -3.78174467723004E-08
     -3.08219421932396E-29
      5.10000000000000E-01
      1.02000000000000E+00   1.02000000000000E+00   0.00000000000000E+00   0.00000000000000E+00   1.00525042014721E-08
      3.45986004470470E-08   4.46511046485190E-08   6.07003555438289E-28   0.00000000000000E+00   0.00000000000000E+00
      0.00000000000000E+00   0.00000000000000E+00   1.92401139511051E-15  -4.46511065725204E-08  -4.46511046485090E-08
      1.54351641438672E-29
      5.20000000000000E-01
      1.04000000000000E+00   1.04000000000000E+00   0.00000000000000E+00   0.00000000000000E+00   1.03505227677683E-08
      4.26618087240121E-08   5.30123314917805E-08   3.10372603137418E-28   0.00000000000000E+00   0.00000000000000E+00
      0.00000000000000E+00   0.00000000000000E+00   3.93524115928651E-15  -5.30123354270408E-08  -5.30123314917996E-08
     -1.95479821759322E-29
      5.30000000000000E-01
      1.06000000000000E+00   1.06000000000000E+00   0.00000000000000E+00   0.00000000000000E+00   1.06873764817712E-08
      5.25393271713963E-08   6.32267036531675E-08  -2.09971457060539E-28   0.00000000000000E+00   0.00000000000000E+00
      0.00000000000000E+00   0.00000000000000E+00   6.39313773483913E-15  -6.32267100462948E-08  -6.32267036531571E-08
      4.37894155178678E-29
      5.40000000000000E-01
      1.08000000000000E+00   1.08000000000000E+00   0.00000000000000E+00   0.00000000000000E+00   1.10743150530636E-08
      6.46084296105368E-08   7.56827446636004E-08   6.04850374233267E-28   0.00000000000000E+00   0.00000000000000E+00
      0.00000000000000E+00   0.00000000000000E+00   9.39132730783651E-15  -7.56827540549513E-08  -7.56827446636240E-08
      1.78060827741164E-29
      5.50000000000000E-01
      1.10000000000000E+00   1.10000000000000E+00   0.00000000000000E+00   0.00000000000000E+00   1.15251433459829E-08
      7.93174437770239E-08   9.08425871230068E-08   6.57808954657915E-29   0.00000000000000E+00   0.00000000000000E+00
      0.00000000000000E+00   0.00000000000000E+00   1.30411362119762E-14  -9.08426001641401E-08  -9.08425871230039E-08
     -1.03546242219047E-29
      5.60000000000000E-01
      1.12000000000000E+00   1.12000000000000E+00   0.00000000000000E+00   0.00000000000000E+00   1.20573283599641E-08
      9.71968095455773E-08   1.09254137905541E-07  -3.43783201386134E-29   0.00000000000000E+00   0.00000000000000E+00
      0.00000000000000E+00   0.00000000000000E+00   1.74744802261139E-14  -1.09254155380014E-07  -1.09254137905534E-07
      1.84351020025499E-29
      5.70000000000000E-01
      1.14000000000000E+00   1.14000000000000E+00   0.00000000000000E+00   0.00000000000000E+00   1.26927142711323E-08
      1.18872148244469E-07   1.31564862515601E-07   1.29215065348581E-28   0.00000000000000E+00   0.00000000000000E+00
      0.00000000000000E+00   0.00000000000000E+00   2.28471259603719E-14  -1.31564885362712E-07  -1.31564862515586E-07
      3.04832395317754E-30
      5.80000000000000E-01
      1.16000000000000E+00   1.16000000000000E+00   0.00000000000000E+00   0.00000000000000E+00   1.34585201243947E-08
      1.45078840359462E-07   1.58537360483857E-07  -6.34099768355423E-29   0.00000000000000E+00   0.00000000000000E+00
      0.00000000000000E+00   0.00000000000000E+00   2.93423935307581E-14  -1.58537389826250E-07  -1.58537360483856E-07
      9.38690233200702E-30
      5.90000000000000E-01
      1.18000000000000E+00   1.18000000000000E+00   0.00000000000000E+00   0.00000000000000E+00   1.43887347886295E-08
      1.76677997064868E-07   1.91066731853497E-07   5.35392135585865E-29   0.00000000000000E+00   0.00000000000000E+00
      0.00000000000000E+00   0.00000000000000E+00   3.71752995904826E-14  -1.91066769028819E-07  -1.91066731853519E-07
      4.16120412655981E-30
      6.00000000000000E-01
      1.20000000000000E+00   1.20000000000000E+00   0.00000000000000E+00   0.00000000000000E+00   1.55253440674014E-08
      2.14674567765598E-07   2.30199911833000E-07   6.69663547809161E-29   0.00000000000000E+00   0.00000000000000E+00
      0.00000000000000E+00   0.00000000000000E+00   4.65971058204672E-14  -2.30199958430112E-07  -2.30199911833006E-07
     -2.00318431208810E-29
      6.10000000000000E-01
      1.22000000000000E+00   1.22000000000000E+00   0.00000000000000E+00   0.00000000000000E+00   1.69204553350648E-08
      2.60236793231403E-07   2.77157248566468E-07   1.28876362687117E-28   0.00000000000000E+00   0.00000000000000E+00
      0.00000000000000E+00   0.00000000000000E+00   5.79003160525752E-14  -2.77157306466757E-07  -2.77157248566441E-07
     -8.70949700907868E-31
      6.20000000000000E-01
      1.24000000000000E+00   1.24000000000000E+00   0.00000000000000E+00   0.00000000000000E+00   1.86383821157725E-08
      3.14717687004481E-07   3.33356069120254E-07  -4.59425967228900E-28   0.00000000000000E+00   0.00000000000000E+00
      0.00000000000000E+00   0.00000000000000E+00   7.14240765681895E-14  -3.33356140544319E-07  -3.33356069120242E-07
     -1.24352262851846E-29
      6.30000000000000E-01
      1.26000000000000E+00   1.26000000000000E+00   0.00000000000000E+00   0.00000000000000E+00   2.07582122413650E-08
      3.79678222448858E-07   4.00436434690223E-07  -5.50536983162762E-28   0.00000000000000E+00   0.00000000000000E+00
      0.00000000000000E+00   0.00000000000000E+00   8.75600362345496E-14  -4.00436522250289E-07  -4.00436434690253E-07
     -1.21449097182153E-29
      6.40000000000000E-01
      1.28000000000000E+00   1.28000000000000E+00   0.00000000000000E+00   0.00000000000000E+00   2.33767767295249E-08
      4.56912237491638E-07   4.80289014221163E-07   3.01034086899906E-28   0.00000000000000E+00   0.00000000000000E+00
      0.00000000000000E+00   0.00000000000000E+00   1.06758615800273E-13  -4.80289120979773E-07  -4.80289014221157E-07
     -1.62577277502802E-29
      6.50000000000000E-01
      1.30000000000000E+00   1.30000000000000E+00   0.00000000000000E+00   0.00000000000000E+00   2.66124019088225E-08
      5.48472784324940E-07   5.75085186233762E-07   8.97803983352527E-29   0.00000000000000E+00   0.00000000000000E+00
      0.00000000000000E+00   0.00000000000000E+00   1.29535683866477E-13  -5.75085315769481E-07  -5.75085186233797E-07
      6.14503400084996E-30
      6.60000000000000E-01
      1.32000000000000E+00   1.32000000000000E+00   0.00000000000000E+00   0.00000000000000E+00   3.06078627184162E-08
      6.56700428733666E-07   6.87308291452083E-07   1.71577091078850E-28   0.00000000000000E+00   0.00000000000000E+00
      0.00000000000000E+00   0.00000000000000E+00   1.56479308740579E-13  -6.87308447931397E-07  -6.87308291452088E-07
     -3.54186211702533E-29
      6.70000000000000E-01
      1.34000000000000E+00   1.34000000000000E+00   0.00000000000000E+00   0.00000000000000E+00   3.55354183300909E-08
      7.84251946131615E-07   8.19787364461705E-07  -1.57424158439097E-28   0.00000000000000E+00   0.00000000000000E+00
      0.00000000000000E+00   0.00000000000000E+00   1.88256826497623E-13  -8.19787552718543E-07  -8.19787364461716E-07
      5.46762867792162E-30
      6.80000000000000E-01
      1.36000000000000E+00   1.36000000000000E+00   0.00000000000000E+00   0.00000000000000E+00   4.16015105890954E-08
      9.34130136298467E-07   9.75731646887562E-07  -4.44668208407962E-29   0.00000000000000E+00   0.00000000000000E+00
      0.00000000000000E+00   0.00000000000000E+00   2.25621756257195E-13  -9.75731872509302E-07  -9.75731646887545E-07
      3.48379880363147E-30
      6.90000000000000E-01