DF-ISE text

Info {
  version   = 1.0
  type      = xyplot
  datasets  = [
    "time"
    "ntype OuterVoltage" "ntype InnerVoltage" "ntype QuasiFermiPotential" "ntype DisplacementCurrent" "ntype eCurrent"
    "ntype hCurrent" "ntype TotalCurrent" "ntype Charge" "ptype OuterVoltage" "ptype InnerVoltage"
    "ptype QuasiFermiPotential" "ptype DisplacementCurrent" "ptype eCurrent" "ptype hCurrent" "ptype TotalCurrent"
    "ptype Charge" ]
  functions = [
    Time
    OuterVoltage InnerVoltage QuasiFermiPotential DisplacementCurrent eCurrent
    hCurrent TotalCurrent Charge OuterVoltage InnerVoltage
    QuasiFermiPotential DisplacementCurrent eCurrent hCurrent TotalCurrent
    Charge ]
}

Data {
      0.00000000000000E+00
      0.00000000000000E+00   0.00000000000000E+00   0.00000000000000E+00   0.00000000000000E+00  -1.30096710781356E-22
      1.09599389730026E-16   1.09599259633315E-16  -1.82572831052812E-27   0.00000000000000E+00   0.00000000000000E+00
      0.00000000000000E+00   0.00000000000000E+00  -1.81165706503668E-24  -2.47186398302843E-19  -2.47188209959908E-19
     -3.74992232335332E-29
      0.00000000000000E+00
      0.00000000000000E+00   0.00000000000000E+00   0.00000000000000E+00   0.00000000000000E+00   2.30567876233139E-22
      1.16181818198552E-16   1.16182048766428E-16   1.19470105917312E-27   0.00000000000000E+00   0.00000000000000E+00
      0.00000000000000E+00   0.00000000000000E+00   3.14126727372387E-24  -2.37022475916327E-19  -2.37019334649054E-19
     -3.13541892326833E-29
      0.00000000000000E+00
      0.00000000000000E+00   0.00000000000000E+00   0.00000000000000E+00   0.00000000000000E+00   1.92830540081598E-22
     -3.72393174679036E-18  -3.72373891625027E-18  -8.87884833981077E-30   0.00000000000000E+00   0.00000000000000E+00
      0.00000000000000E+00   0.00000000000000E+00   2.88173523680176E-24  -3.79928001388909E-20  -3.79899184036541E-20
     -1.30642455136180E-29
      5.00000000000000E-03
      7.50000000000000E-02   7.50000000000000E-02   0.00000000000000E+00   0.00000000000000E+00   1.25837731224667E-09
      8.14457240641261E-11   1.33982303631079E-09   1.80141429804444E-28   0.00000000000000E+00   0.00000000000000E+00
      0.00000000000000E+00   0.00000000000000E+00  -7.59573580493849E-15  -1.33981544054278E-09  -1.33982303627859E-09
     -5.32247039443697E-30
      1.23333333333333E-02
      1.85000000000000E-01   1.85000000000000E-01   0.00000000000000E+00   0.00000000000000E+00   2.34947485694159E-09
      2.76544106492445E-10   2.62601896343403E-09   3.88080670896198E-28   0.00000000000000E+00   0.00000000000000E+00
      0.00000000000000E+00   0.00000000000000E+00  -7.94667256489001E-15  -2.62601101696429E-09  -2.62601896363685E-09
      1.76609244906318E-29
      2.23333333333333E-02
      3.35000000000000E-01   3.35000000000000E-01   0.00000000000000E+00   0.00000000000000E+00   3.71859491946104E-09
      4.48190676652258E-10   4.16678559611330E-09  -7.96652852810978E-28   0.00000000000000E+00   0.00000000000000E+00
      0.00000000000000E+00   0.00000000000000E+00  -7.66302962193256E-15  -4.16677793288062E-09  -4.16678559591025E-09
     -2.01286153098707E-29
      3.23333333333333E-02
      4.85000000000000E-01   4.85000000000000E-01   0.00000000000000E+00   0.00000000000000E+00   5.02451263265406E-09
      6.47116927350760E-10   5.67162956000482E-09  -2.14035888998109E-28   0.00000000000000E+00   0.00000000000000E+00
      0.00000000000000E+00   0.00000000000000E+00  -7.35532926232990E-15  -5.67162220470933E-09  -5.67162956003859E-09
      5.46762867792162E-30
      4.23333333333333E-02
      6.35000000000000E-01   6.35000000000000E-01   0.00000000000000E+00   0.00000000000000E+00   6.32858109917176E-09
      1.11445775519271E-09   7.44303885436447E-09  -9.25988883395796E-28   0.00000000000000E+00   0.00000000000000E+00
      0.00000000000000E+00   0.00000000000000E+00  -6.96753416256024E-15  -7.44303188689243E-09  -7.44303885442659E-09
      4.16120412655981E-30
      5.23333333333333E-02
      7.85000000000000E-01   7.85000000000000E-01   0.00000000000000E+00   0.00000000000000E+00   7.65156806833124E-09
      3.18258175181689E-09   1.08341498201481E-08   1.91996022955690E-28   0.00000000000000E+00   0.00000000000000E+00
      0.00000000000000E+00   0.00000000000000E+00  -6.18080134931070E-15  -1.08341436394385E-08  -1.08341498202399E-08
     -4.45152069352910E-30
      6.23333333333333E-02
      9.35000000000000E-01   9.35000000000000E-01   0.00000000000000E+00   0.00000000000000E+00   9.04886865372298E-09
      1.41189767240850E-08   2.31678453778080E-08  -1.47819518681863E-28   0.00000000000000E+00   0.00000000000000E+00
      0.00000000000000E+00   0.00000000000000E+00  -3.23688009578462E-15  -2.31678421408944E-08  -2.31678453777745E-08
      1.63544999392700E-29
      7.23333333333333E-02
      1.08500000000000E+00   1.08500000000000E+00   0.00000000000000E+00   0.00000000000000E+00   1.11804115155879E-08
      6.80189757607839E-08   7.91993872763718E-08  -1.33158532049914E-28   0.00000000000000E+00   0.00000000000000E+00
      0.00000000000000E+00   0.00000000000000E+00   1.02380126245415E-14  -7.91993975143708E-08  -7.91993872763582E-08
     -4.09346359426698E-29
      8.23333333333333E-02
      1.23500000000000E+00   1.23500000000000E+00   0.00000000000000E+00   0.00000000000000E+00   1.81746031015597E-08
      3.00179758178832E-07   3.18354361280392E-07  -2.08447295083950E-28   0.00000000000000E+00   0.00000000000000E+00
      0.00000000000000E+00   0.00000000000000E+00   6.78147506360864E-14  -3.18354429095149E-07  -3.18354361280398E-07
      3.09671004767242E-30
      9.23333333333333E-02
      1.38500000000000E+00   1.38500000000000E+00   0.00000000000000E+00   0.00000000000000E+00   5.11639946789835E-08
      1.15806042662143E-06   1.20922442130042E-06  -3.71121344775742E-28   0.00000000000000E+00   0.00000000000000E+00
      0.00000000000000E+00   0.00000000000000E+00   2.81483952099429E-13  -1.20922470278436E-06  -1.20922442130041E-06
      1.46126005374542E-29
      1.02333333333333E-01
      1.53500000000000E+00   1.53500000000000E+00   0.00000000000000E+00   0.00000000000000E+00   1.96958809062964E-07
      3.84481348282418E-06   4.04177229188714E-06  -1.73585114000388E-28   0.00000000000000E+00   0.00000000000000E+00
      0.00000000000000E+00   0.00000000000000E+00   9.51161766347279E-13  -4.04177324304889E-06  -4.04177229188712E-06
     -5.37085648893185E-30
      1.12333333333333E-01
      1.68500000000000E+00   1.68500000000000E+00   0.00000000000000E+00   0.00000000000000E+00   7.22967282156495E-07
      1.08782063745150E-05   1.16011736566715E-05   1.68552960172920E-28   0.00000000000000E+00   0.00000000000000E+00
      0.00000000000000E+00   0.00000000000000E+00   2.66796802705406E-12  -1.16011763246396E-05  -1.16011736566715E-05
      9.67721889897631E-32
      1.22333333333333E-01
      1.83500000000000E+00   1.83500000000000E+00   0.00000000000000E+00   0.00000000000000E+00   2.23532688315456E-06
      2.60336553196434E-05   2.82689822027979E-05   1.02264010714932E-28   0.00000000000000E+00   0.00000000000000E+00
      0.00000000000000E+00   0.00000000000000E+00   6.11764078686615E-12  -2.82689883204386E-05  -2.82689822027979E-05
      1.01126937494302E-29
      1.32333333333333E-01
      1.98500000000000E+00   1.98500000000000E+00   0.00000000000000E+00   0.00000000000000E+00   5.72318274318669E-06
      5.27721607887406E-05   5.84953435319272E-05   1.34150446987059E-29   0.00000000000000E+00   0.00000000000000E+00
      0.00000000000000E+00   0.00000000000000E+00   1.13551323266067E-11  -5.84953548870597E-05  -5.84953435319274E-05
      2.00802292153759E-29
      1.42333333333333E-01
      2.13500000000000E+00   2.13500000000000E+00   0.00000000000000E+00   0.00000000000000E+00   1.23398229102103E-05
      9.20230784857618E-05   1.04362901395972E-04  -9.89011771475379E-29   0.00000000000000E+00   0.00000000000000E+00
      0.00000000000000E+00   0.00000000000000E+00   1.73192434655936E-11  -1.04362918715215E-04  -1.04362901395972E-04
      2.62736493107207E-29
      1.52333333333333E-01
      2.28500000000000E+00   2.28500000000000E+00   0.00000000000000E+00   0.00000000000000E+00   2.30873462263720E-05
      1.41606523749629E-04   1.64693869976001E-04   1.28731204403632E-28   0.00000000000000E+00   0.00000000000000E+00
      0.00000000000000E+00   0.00000000000000E+00   2.25167460441850E-11  -1.64693892492748E-04  -1.64693869976002E-04
     -3.87088755959053E-30
      1.62333333333333E-01
      2.43500000000000E+00   2.43500000000000E+00   0.00000000000000E+00   0.00000000000000E+00   3.86834058758782E-05
      1.97569535492102E-04   2.36252941367980E-04   1.67415886952290E-29   0.00000000000000E+00   0.00000000000000E+00
      0.00000000000000E+00   0.00000000000000E+00   2.60147130071066E-11  -2.36252967382694E-04  -2.36252941367981E-04
      1.30642455136180E-29
      1.72333333333333E-01
      2.58500000000000E+00   2.58500000000000E+00   0.00000000000000E+00   0.00000000000000E+00   5.96272149385845E-05
      2.55845193416873E-04   3.15472408355458E-04   3.72270514519995E-29   0.00000000000000E+00   0.00000000000000E+00
      0.00000000000000E+00   0.00000000000000E+00   2.76530356459832E-11  -3.15472436008494E-04  -3.15472408355458E-04
     -1.77093105851267E-29
      1.82333333333333E-01
      2.73500000000000E+00   2.73500000000000E+00   0.00000000000000E+00   0.00000000000000E+00   8.63264091450188E-05
      3.13228994218675E-04   3.99555403363694E-04   1.75702005634539E-30   0.00000000000000E+00   0.00000000000000E+00
      0.00000000000000E+00   0.00000000000000E+00   2.77029882166034E-11  -3.99555431066683E-04  -3.99555403363694E-04
      7.93531949716058E-30
      1.92333333333333E-01
      2.88500000000000E+00   2.88500000000000E+00   0.00000000000000E+00   0.00000000000000E+00   1.19179578590731E-04
      3.67533687588260E-04   4.86713266178991E-04   3.93137017770913E-31   0.00000000000000E+00   0.00000000000000E+00
      0.00000000000000E+00   0.00000000000000E+00   2.65296568341733E-11  -4.86713292708650E-04  -4.86713266178993E-04
     -2.99993785868266E-30
      2.02333333333333E-01
      3.03500000000000E+00   3.03500000000000E+00   0.00000000000000E+00   0.00000000000000E+00   1.58684712173776E-04
      4.17591710040093E-04   5.76276422213868E-04   2.23967134893183E-29   0.00000000000000E+00   0.00000000000000E+00
      0.00000000000000E+00   0.00000000000000E+00   2.44404947964210E-11  -5.76276446654360E-04  -5.76276422213865E-04
     -2.29833948850687E-29
      2.12333333333333E-01
      3.18500000000000E+00   3.18500000000000E+00   0.00000000000000E+00   0.00000000000000E+00   2.05508880046037E-04
      4.63109414817028E-04   6.68618294863065E-04  -4.97650981879857E-29   0.00000000000000E+00   0.00000000000000E+00
      0.00000000000000E+00   0.00000000000000E+00   2.16436746883978E-11  -6.68618316506739E-04  -6.68618294863064E-04
      8.56433872559404E-30
      2.22333333333333E-01
      3.33500000000000E+00   3.33500000000000E+00   0.00000000000000E+00   0.00000000000000E+00   2.60464432653500E-04
      5.04299594981609E-04   7.64764027635109E-04  -3.31081851581227E-29   0.00000000000000E+00   0.00000000000000E+00
      0.00000000000000E+00   0.00000000000000E+00   1.82586562945155E-11  -7.64764045893763E-04  -7.64764027635107E-04
     -1.59674111833109E-30
      2.32333333333333E-01
      3.48500000000000E+00   3.48500000000000E+00   0.00000000000000E+00   0.00000000000000E+00   3.24482492634515E-04
      5.41591430340499E-04   8.66073922975013E-04   2.08991638647017E-28   0.00000000000000E+00   0.00000000000000E+00
      0.00000000000000E+00   0.00000000000000E+00   1.43426776363053E-11  -8.66073937317686E-04  -8.66073922975009E-04
     -6.29019228433460E-31
      2.42333333333333E-01
      3.63500000000000E+00   3.63500000000000E+00   0.00000000000000E+00   0.00000000000000E+00   3.98585822377626E-04
      5.75472180880351E-04   9.74058003257978E-04  -1.15328256228550E-28   0.00000000000000E+00   0.00000000000000E+00
      0.00000000000000E+00   0.00000000000000E+00   9.91470761550044E-12  -9.74058013172683E-04  -9.74058003257975E-04
     -2.09027928217888E-29
      2.52333333333333E-01
      3.78500000000000E+00   3.78500000000000E+00   0.00000000000000E+00   0.00000000000000E+00   4.83858282135120E-04
      6.06410295390719E-04   1.09026857752584E-03   5.59101321888356E-29   0.00000000000000E+00   0.00000000000000E+00
      0.00000000000000E+00   0.00000000000000E+00   4.97306374422050E-12  -1.09026858249890E-03  -1.09026857752584E-03
      1.71286774511881E-29
      2.62333333333333E-01
      3.93500000000000E+00   3.93500000000000E+00   0.00000000000000E+00   0.00000000000000E+00   5.81423041387349E-04
      6.34818457826414E-04   1.21624149921376E-03  -2.11785935604097E-28   0.00000000000000E+00   0.00000000000000E+00
      0.00000000000000E+00   0.00000000000000E+00  -4.92985048846093E-13  -1.21624149872078E-03  -1.21624149921377E-03
     -1.57254807108365E-29
      2.72333333333333E-01
      4.08500000000000E+00   4.08500000000000E+00   0.00000000000000E+00   0.00000000000000E+00   6.92423167700136E-04
      6.61041215835499E-04   1.35346438353564E-03   1.14771816141859E-28   0.00000000000000E+00   0.00000000000000E+00
      0.00000000000000E+00   0.00000000000000E+00  -6.49618442103016E-12  -1.35346437703945E-03  -1.35346438353563E-03
      2.41930472474408E-30
      2.82333333333333E-01
      4.23500000000000E+00   4.23500000000000E+00   0.00000000000000E+00   0.00000000000000E+00   8.18000430207597E-04
      6.85356744696053E-04   1.50335717490365E-03   1.27666710324745E-28   0.00000000000000E+00   0.00000000000000E+00
      0.00000000000000E+00   0.00000000000000E+00  -1.30473504178068E-11  -1.50335716185629E-03  -1.50335717490364E-03
      7.83854730817081E-30
      2.92333333333333E-01
      4.38500000000000E+00   4.38500000000000E+00   0.00000000000000E+00   0.00000000000000E+00   9.59272013826687E-04
      7.07985464354142E-04   1.66725747818083E-03   4.65474229040761E-29   0.00000000000000E+00   0.00000000000000E+00
      0.00000000000000E+00   0.00000000000000E+00  -2.01533640638947E-11  -1.66725745802746E-03  -1.66725747818082E-03
     -5.85471743388067E-30
      3.02333333333333E-01
      4.53500000000000E+00   4.53500000000000E+00   0.00000000000000E+00   0.00000000000000E+00   1.11730940139495E-03
      7.29100906929131E-04   1.84641030832408E-03  -1.50045279028628E-28   0.00000000000000E+00   0.00000000000000E+00
      0.00000000000000E+00   0.00000000000000E+00  -2.78163706202316E-11  -1.84641028050772E-03  -1.84641030832409E-03
      2.21124451841609E-29
      3.12333333333333E-01
      4.68500000000000E+00   4.68500000000000E+00   0.00000000000000E+00   0.00000000000000E+00   1.29312413736973E-03
      7.48840131051113E-04   2.04196426842084E-03  -5.88858770002709E-29   0.00000000000000E+00   0.00000000000000E+00
      0.00000000000000E+00   0.00000000000000E+00  -3.60336518043092E-11  -2.04196423238720E-03  -2.04196426842086E-03
     -1.73222218291676E-29
      3.22333333333333E-01
      4.83500000000000E+00   4.83500000000000E+00   0.00000000000000E+00   0.00000000000000E+00   1.48766105852026E-03
      7.67312796661318E-04   2.25497385518158E-03   2.55188262366005E-28   0.00000000000000E+00   0.00000000000000E+00
      0.00000000000000E+00   0.00000000000000E+00  -4.47976689054347E-11  -2.25497381038389E-03  -2.25497385518156E-03
      1.11288017338228E-30
      3.32333333333333E-01
      4.98500000000000E+00   4.98500000000000E+00   0.00000000000000E+00   0.00000000000000E+00   1.70179684518211E-03
      7.84607475308849E-04   2.48640432049096E-03  -6.89985707497011E-29   0.00000000000000E+00   0.00000000000000E+00
      0.00000000000000E+00   0.00000000000000E+00  -5.40958395377482E-11  -2.48640426639512E-03  -2.48640432049096E-03
     -4.98376773297280E-30
      3.42333333333333E-01
      5.13500000000000E+00   5.13500000000000E+00   0.00000000000000E+00   0.00000000000000E+00   1.93634230072190E-03
      8.00797895934355E-04   2.73714019665625E-03  -5.98052127956736E-29   0.00000000000000E+00   0.00000000000000E+00
      0.00000000000000E+00   0.00000000000000E+00  -6.39100539931668E-11  -2.73714013274620E-03  -2.73714019665626E-03
      2.12898815777479E-29
      3.52333333333333E-01
      5.28500000000000E+00   5.28500000000000E+00   0.00000000000000E+00   0.00000000000000E+00   2.19204651572613E-03
      8.15946692433436E-04   3.00799320815957E-03   1.37561666648948E-28   0.00000000000000E+00   0.00000000000000E+00
      0.00000000000000E+00   0.00000000000000E+00  -7.42159523221360E-11  -3.00799313394363E-03  -3.00799320815958E-03
     -1.38868091200310E-29
      3.62333333333334E-01
      5.43500000000000E+00   5.43500000000000E+00   0.00000000000000E+00   0.00000000000000E+00   2.46960144235784E-03
      8.30107462251702E-04   3.29970890460954E-03   3.90572554762684E-28   0.00000000000000E+00   0.00000000000000E+00
      0.00000000000000E+00   0.00000000000000E+00  -8.49823152221619E-11  -3.29970881962725E-03  -3.29970890460956E-03
      3.43541270913659E-30
      3.72333333333334E-01
      5.58500000000000E+00   5.58500000000000E+00   0.00000000000000E+00   0.00000000000000E+00   2.76964669194608E-03
      8.43331228075139E-04   3.61297792002122E-03   1.59480567455130E-28   0.00000000000000E+00   0.00000000000000E+00
      0.00000000000000E+00   0.00000000000000E+00  -9.61712140748748E-11  -3.61297782385002E-03  -3.61297792002124E-03
      6.38696447332437E-30
      3.82333333333334E-01
      5.73500000000000E+00   5.73500000000000E+00   0.00000000000000E+00   0.00000000000000E+00   3.09277003217111E-03
      8.55663059469071E-04   3.94843309164018E-03  -4.05427085772613E-28   0.00000000000000E+00   0.00000000000000E+00
      0.00000000000000E+00   0.00000000000000E+00  -1.07738583051332E-10  -3.94843298390160E-03  -3.94843309164018E-03
     -1.75157662071471E-29
      3.92333333333334E-01
      5.88500000000000E+00   5.88500000000000E+00   0.00000000000000E+00   0.00000000000000E+00   3.43950572217840E-03
      8.67146332567656E-04   4.30665205474605E-03  -3.67976248633574E-28   0.00000000000000E+00   0.00000000000000E+00
      0.00000000000000E+00   0.00000000000000E+00  -1.19636085717432E-10  -4.30665193510997E-03  -4.30665205474606E-03
      1.55319363328570E-29
      4.02333333333334E-01
      6.03500000000000E+00   6.03500000000000E+00   0.00000000000000E+00   0.00000000000000E+00   3.81032872004218E-03
      8.77822924526592E-04   4.68815164456877E-03   1.49513031989184E-28   0.00000000000000E+00   0.00000000000000E+00
      0.00000000000000E+00   0.00000000000000E+00  -1.31813596126697E-10  -4.68815151275516E-03  -4.68815164456876E-03
     -4.49990678802399E-30
      4.12333333333334E-01
      6.18500000000000E+00   6.18500000000000E+00   0.00000000000000E+00   0.00000000000000E+00   4.20564702021961E-03
      8.87733769222404E-04   5.09338078944201E-03   4.75732081073676E-28   0.00000000000000E+00   0.00000000000000E+00
      0.00000000000000E+00   0.00000000000000E+00  -1.44222065482020E-10  -5.09338064521996E-03  -5.09338078944203E-03
      3.91927365408541E-30
      4.22333333333334E-01
      6.33500000000000E+00   6.33500000000000E+00   0.00000000000000E+00   0.00000000000000E+00   4.62579336540674E-03
      8.96919151059929E-04   5.52271251646667E-03   9.46432008319883E-29   0.00000000000000E+00   0.00000000000000E+00
      0.00000000000000E+00   0.00000000000000E+00  -1.56816155504182E-10  -5.52271235965052E-03  -5.52271251646668E-03
      7.79016121367593E-30
      4.32333333333334E-01
      6.48500000000000E+00   6.48500000000000E+00   0.00000000000000E+00   0.00000000000000E+00   5.07101913133015E-03
      9.05421871399258E-04   5.97644100272941E-03  -4.54829288251887E-29   0.00000000000000E+00   0.00000000000000E+00
      0.00000000000000E+00   0.00000000000000E+00  -1.69556227800849E-10  -5.97644083317318E-03  -5.97644100272941E-03
      1.02578520329149E-29
      4.42333333333334E-01
      6.63500000000000E+00   6.63500000000000E+00   0.00000000000000E+00   0.00000000000000E+00   5.54147927527363E-03
      9.13275426598155E-04   6.45475470187178E-03   6.86114819937421E-29   0.00000000000000E+00   0.00000000000000E+00
      0.00000000000000E+00   0.00000000000000E+00  -1.82408399674905E-10  -6.45475451946337E-03  -6.45475470187177E-03
     -6.48373666231413E-30
      4.52333333333334E-01
      6.78500000000000E+00   6.78500000000000E+00   0.00000000000000E+00   0.00000000000000E+00   6.03723629227953E-03
      9.20521018943206E-04   6.95775731122274E-03   8.58369316339199E-29   0.00000000000000E+00   0.00000000000000E+00
      0.00000000000000E+00   0.00000000000000E+00  -1.95297826359351E-10  -6.95775711592490E-03  -6.95775731122272E-03
      6.19342009534484E-30
      4.62333333333334E-01
      6.93500000000000E+00   6.93500000000000E+00   0.00000000000000E+00   0.00000000000000E+00   6.55824510544945E-03
      9.27192629471241E-04   7.48543773492069E-03   3.91927365408541E-29   0.00000000000000E+00   0.00000000000000E+00
      0.00000000000000E+00   0.00000000000000E+00  -2.08107076937196E-10  -7.48543752681364E-03  -7.48543773492071E-03
     -9.19335795402750E-31
      4.72333333333334E-01
      7.08500000000000E+00   7.08500000000000E+00   0.00000000000000E+00   0.00000000000000E+00   7.10436616221861E-03
      9.33335077541127E-04   8.03770123975974E-03  -5.51601477241650E-30   0.00000000000000E+00   0.00000000000000E+00
      0.00000000000000E+00   0.00000000000000E+00  -2.20939676253719E-10  -8.03770101882006E-03  -8.03770123975974E-03
      9.87076327695584E-30
      4.82333333333334E-01
      7.23500000000000E+00   7.23500000000000E+00   0.00000000000000E+00   0.00000000000000E+00   7.67534332486515E-03
      9.38980516336131E-04   8.61432384120128E-03   4.18055856435777E-29   0.00000000000000E+00   0.00000000000000E+00
      0.00000000000000E+00   0.00000000000000E+00  -2.11730820308007E-10  -8.61432362947048E-03  -8.61432384120130E-03
     -2.90316566969289E-30
      4.92333333333334E-01
      7.38500000000000E+00   7.38500000000000E+00   0.00000000000000E+00   0.00000000000000E+00   8.27081868912069E-03
      9.44163921769866E-04   9.21498261089056E-03  -9.39754727279590E-28   0.00000000000000E+00   0.00000000000000E+00
      0.00000000000000E+00   0.00000000000000E+00   1.43389715128953E-09  -9.21498404478771E-03  -9.21498261089056E-03
     -2.90316566969289E-30
      5.02333333333334E-01
      7.53500000000000E+00   7.53500000000000E+00   0.00000000000000E+00   0.00000000000000E+00   8.89033153481501E-03
      9.48918840110045E-04   9.83925037492506E-03  -7.30630026872712E-29   0.00000000000000E+00   0.00000000000000E+00
      0.00000000000000E+00   0.00000000000000E+00   2.50204105198741E-08  -9.83927539533556E-03  -9.83925037492503E-03
     -5.70955915039602E-30
      5.12333333333334E-01
      7.68500000000000E+00   7.68500000000000E+00   0.00000000000000E+00   0.00000000000000E+00   9.53332235747195E-03
      9.53277463028552E-04   1.04865998205005E-02  -8.80530147617855E-28   0.00000000000000E+00   0.00000000000000E+00
      0.00000000000000E+00   0.00000000000000E+00   1.63180166913842E-07  -1.04867630006674E-02  -1.04865998205005E-02
     -1.75157662071471E-29
      5.22333333333334E-01
      7.83500000000000E+00   7.83500000000000E+00   0.00000000000000E+00   0.00000000000000E+00   1.01991378701807E-02
      9.57270515993056E-04   1.11564083861737E-02   1.61609555612904E-28   0.00000000000000E+00   0.00000000000000E+00
      0.00000000000000E+00   0.00000000000000E+00   6.43381672684155E-07  -1.11570517678464E-02  -1.11564083861737E-02
     -9.67721889897631E-30
      5.32333333333334E-01
      7.98500000000000E+00   7.98500000000000E+00   0.00000000000000E+00   0.00000000000000E+00   1.08870373371475E-02
      9.60927207598734E-04   1.18479645447463E-02  -1.76899561473287E-28   0.00000000000000E+00   0.00000000000000E+00
      0.00000000000000E+00   0.00000000000000E+00   1.84718149680458E-06  -1.18498117262432E-02  -1.18479645447463E-02
     -6.91921151276806E-30
      5.42333333333334E-01
      8.13500000000001E+00   8.13500000000001E+00   0.00000000000000E+00   0.00000000000000E+00   1.15962003105346E-02
      9.64275197910519E-04   1.25604755084451E-02  -2.69607318525480E-28   0.00000000000000E+00   0.00000000000000E+00
      0.00000000000000E+00   0.00000000000000E+00   4.27972770801889E-06  -1.25647552361532E-02  -1.25604755084451E-02
      8.03209168615034E-30
      5.52333333333334E-01
      8.28500000000001E+00   8.28500000000001E+00   0.00000000000000E+00   0.00000000000000E+00   1.23257359033014E-02
      9.67340583069231E-04   1.32930764863707E-02   6.17019476998730E-28   0.00000000000000E+00   0.00000000000000E+00
      0.00000000000000E+00   0.00000000000000E+00   8.51698943999904E-06  -1.33015934758107E-02  -1.32930764863707E-02
      4.30636241004446E-30
      5.62333333333334E-01
      8.43500000000001E+00   8.43500000000001E+00   0.00000000000000E+00   0.00000000000000E+00   1.30746937262982E-02
      9.70147891148599E-04   1.40448416174468E-02  -1.17674981811552E-28   0.00000000000000E+00   0.00000000000000E+00
      0.00000000000000E+00   0.00000000000000E+00   1.51555791265574E-05  -1.40599971965733E-02  -1.40448416174468E-02
     -9.19335795402750E-30
      5.72333333333334E-01
      8.58500000000001E+00   8.58500000000001E+00   0.00000000000000E+00   0.00000000000000E+00   1.38420765107710E-02
      9.72720085748692E-04   1.48147965965197E-02  -3.52831401056676E-28   0.00000000000000E+00   0.00000000000000E+00
      0.00000000000000E+00   0.00000000000000E+00   2.47759500098467E-05  -1.48395725465296E-02  -1.48147965965197E-02
     -1.59674111833109E-30
      5.82333333333334E-01
      8.73500000000000E+00   8.73500000000000E+00   0.00000000000000E+00   0.00000000000000E+00   1.46268542296011E-02
      9.75078575429918E-04   1.56019328050310E-02  -1.35868153341627E-28   0.00000000000000E+00   0.00000000000000E+00
      0.00000000000000E+00   0.00000000000000E+00   3.79199251576223E-05  -1.56398527301885E-02  -1.56019328050309E-02
      1.42255117814952E-29
      5.92333333333334E-01
      8.88500000000001E+00   8.88500000000001E+00   0.00000000000000E+00   0.00000000000000E+00   1.54279792705091E-02
      9.77243228877150E-04   1.64052224993862E-02   4.23184782452234E-28   0.00000000000000E+00   0.00000000000000E+00
      0.00000000000000E+00   0.00000000000000E+00   5.50796950906326E-05  -1.64603021944769E-02  -1.64052224993862E-02
     -6.33857837882948E-30
      6.02333333333334E-01
      9.03500000000001E+00   9.03500000000001E+00   0.00000000000000E+00   0.00000000000000E+00   1.62444151787618E-02
      9.79238855924836E-04   1.72236540346866E-02   3.31638291667918E-28   0.00000000000000E+00   0.00000000000000E+00
      0.00000000000000E+00   0.00000000000000E+00   7.66953708618162E-05  -1.73003494055484E-02  -1.72236540346866E-02
      2.17737425226967E-30
      6.12333333333334E-01
      9.18500000000001E+00   9.18500000000001E+00   0.00000000000000E+00   0.00000000000000E+00   1.70750982980544E-02
      9.81069044201333E-04   1.80561673422557E-02  -3.62121531199694E-28   0.00000000000000E+00   0.00000000000000E+00
      0.00000000000000E+00   0.00000000000000E+00   1.03155471742088E-04  -1.81593228139979E-02  -1.80561673422558E-02
      2.95155176418778E-30
      6.22333333333334E-01
      9.33500000000001E+00   9.33500000000001E+00   0.00000000000000E+00   0.00000000000000E+00   1.79190325357298E-02
      9.82755820361309E-04   1.89017883560911E-02  -2.70091179470429E-28   0.00000000000000E+00   0.00000000000000E+00
      0.00000000000000E+00   0.00000000000000E+00   1.34804782744772E-04  -1.90365931388360E-02  -1.89017883560912E-02
     -4.83860944948816E-30
      6.32333333333334E-01
      9.48500000000001E+00   9.48500000000001E+00   0.00000000000000E+00   0.00000000000000E+00   1.87752481221624E-02
      9.84313532012992E-04   1.97595616541754E-02   4.90538225989109E-28   0.00000000000000E+00   0.00000000000000E+00
      0.00000000000000E+00   0.00000000000000E+00   1.71949086698561E-04  -1.99315107408740E-02  -1.97595616541754E-02
     -1.89673490419936E-29
      6.42333333333334E-01
      9.63500000000001E+00   9.63500000000001E+00   0.00000000000000E+00   0.00000000000000E+00   1.96428233252158E-02
      9.85754812809968E-04   2.06285781380257E-02   2.92252010749085E-29   0.00000000000000E+00   0.00000000000000E+00
      0.00000000000000E+00   0.00000000000000E+00   2.14861927057235E-04  -2.08434400650830E-02  -2.06285781380257E-02
     -3.67734318161100E-30
      6.52333333333334E-01
      9.78500000000001E+00   9.78500000000001E+00   0.00000000000000E+00   0.00000000000000E+00   2.05208926351620E-02
      9.87091112961124E-04   2.15079837481231E-02   3.18864362721270E-28   0.00000000000000E+00   0.00000000000000E+00
      0.00000000000000E+00   0.00000000000000E+00   2.63790458553149E-04  -2.17717742066762E-02  -2.15079837481231E-02
     -1.98382987429014E-29
      6.62333333333334E-01
      9.93500000000001E+00   9.93500000000001E+00   0.00000000000000E+00   0.00000000000000E+00   2.14086514299953E-02
      9.88332721883354E-04   2.23969841518786E-02   1.56093540840488E-28   0.00000000000000E+00   0.00000000000000E+00
      0.00000000000000E+00   0.00000000000000E+00   3.18960413219311E-04  -2.27159445650979E-02  -2.23969841518786E-02
     -7.16114198524247E-30
      6.72333333333334E-01
      1.00850000000000E+01   1.00850000000000E+01   0.00000000000000E+00   0.00000000000000E+00   2.23053584950754E-02
      9.89488850458772E-04   2.32948473455341E-02  -2.40285345261582E-28   0.00000000000000E+00   0.00000000000000E+00
      0.00000000000000E+00   0.00000000000000E+00   3.80580236813975E-04  -2.36754275823481E-02  -2.32948473455341E-02
     -5.41924258342674E-30
      6.82333333333334E-01