DF-ISE text

Info {
  version   = 1.0
  type      = xyplot
  datasets  = [
    "time"
    "ntype OuterVoltage" "ntype InnerVoltage" "ntype QuasiFermiPotential" "ntype DisplacementCurrent" "ntype eCurrent"
    "ntype hCurrent" "ntype TotalCurrent" "ntype Charge" "ptype OuterVoltage" "ptype InnerVoltage"
    "ptype QuasiFermiPotential" "ptype DisplacementCurrent" "ptype eCurrent" "ptype hCurrent" "ptype TotalCurrent"
    "ptype Charge" ]
  functions = [
    Time
    OuterVoltage InnerVoltage QuasiFermiPotential DisplacementCurrent eCurrent
    hCurrent TotalCurrent Charge OuterVoltage InnerVoltage
    QuasiFermiPotential DisplacementCurrent eCurrent hCurrent TotalCurrent
    Charge ]
}

Data {
      0.00000000000000E+00
      0.00000000000000E+00   0.00000000000000E+00   0.00000000000000E+00   0.00000000000000E+00   3.21079276800070E-08
     -3.21079275704075E-08   1.09599463140833E-16  -1.82572831052812E-27   0.00000000000000E+00   0.00000000000000E+00
      0.00000000000000E+00   0.00000000000000E+00   1.60219199999982E-11  -1.60219202471864E-11  -2.47188198608752E-19
     -3.74992232335332E-29
      0.00000000000000E+00
      0.00000000000000E+00   0.00000000000000E+00   0.00000000000000E+00   0.00000000000000E+00   2.79082993709874E-08
     -2.79138646056211E-08  -5.56523463365526E-12  -1.97366879444622E-28   0.00000000000000E+00   0.00000000000000E+00
      0.00000000000000E+00   0.00000000000000E+00   1.60773998563712E-11  -1.60219221891025E-11   5.54776672686807E-14
      1.68383608842188E-29
      0.00000000000000E+00
      0.00000000000000E+00   0.00000000000000E+00   0.00000000000000E+00   0.00000000000000E+00   2.76011025380293E-08
     -1.06857498499976E-08   1.69153526880317E-08   1.66278813731661E-28   0.00000000000000E+00   0.00000000000000E+00
      0.00000000000000E+00   0.00000000000000E+00   1.60807877819114E-11  -1.69314334754413E-08  -1.69153526876594E-08
      1.50480753879082E-29
      5.00000000000000E-03
      7.50000000000000E-02   7.50000000000000E-02   0.00000000000000E+00   0.00000000000000E+00   3.03489278451770E-08
     -1.01373723571868E-08   2.02115554879902E-08  -3.24743273202398E-28   0.00000000000000E+00   0.00000000000000E+00
      0.00000000000000E+00   0.00000000000000E+00   1.60225813144694E-11  -2.02275780699805E-08  -2.02115554886661E-08
      2.37091863024920E-29
      1.30000000000000E-02
      1.95000000000000E-01   1.95000000000000E-01   0.00000000000000E+00   0.00000000000000E+00   3.20332879868201E-08
     -9.45057449063440E-09   2.25827134961857E-08   2.86542451598689E-28   0.00000000000000E+00   0.00000000000000E+00
      0.00000000000000E+00   0.00000000000000E+00   1.60191503887124E-11  -2.25987326466532E-08  -2.25827134962645E-08
     -1.22900680016999E-29
      2.30000000000000E-02
      3.45000000000000E-01   3.45000000000000E-01   0.00000000000000E+00   0.00000000000000E+00   3.36013472974955E-08
     -8.64222047621915E-09   2.49591268212763E-08  -2.38857955473983E-28   0.00000000000000E+00   0.00000000000000E+00
      0.00000000000000E+00   0.00000000000000E+00   1.60195050681533E-11  -2.49751463263083E-08  -2.49591268212401E-08
     -6.72566713478854E-30
      3.30000000000000E-02
      4.95000000000000E-01   4.95000000000000E-01   0.00000000000000E+00   0.00000000000000E+00   3.50129565592321E-08
     -7.77506366661980E-09   2.72378928926123E-08  -3.12332239964461E-28   0.00000000000000E+00   0.00000000000000E+00
      0.00000000000000E+00   0.00000000000000E+00   1.60199718580324E-11  -2.72539128643014E-08  -2.72378928924433E-08
     -1.98866848373963E-29
      4.30000000000000E-02
      6.45000000000000E-01   6.45000000000000E-01   0.00000000000000E+00   0.00000000000000E+00   3.63305068556915E-08
     -6.53603167071357E-09   2.97944751849779E-08  -1.13102495881786E-27   0.00000000000000E+00   0.00000000000000E+00
      0.00000000000000E+00   0.00000000000000E+00   1.60205494141644E-11  -2.98104957343774E-08  -2.97944751849633E-08
     -1.35964925530617E-29
      5.30000000000000E-02
      7.95000000000000E-01   7.95000000000000E-01   0.00000000000000E+00   0.00000000000000E+00   3.75609308893545E-08
     -3.37747444622066E-09   3.41834564431339E-08  -1.85342934962644E-28   0.00000000000000E+00   0.00000000000000E+00
      0.00000000000000E+00   0.00000000000000E+00   1.60215834745198E-11  -3.41994780265359E-08  -3.41834564430613E-08
      1.06933268833688E-29
      6.30000000000000E-02
      9.45000000000000E-01   9.45000000000000E-01   0.00000000000000E+00   0.00000000000000E+00   3.87537433109456E-08
      9.82457319504494E-09   4.85783165059905E-08   2.67429944273210E-28   0.00000000000000E+00   0.00000000000000E+00
      0.00000000000000E+00   0.00000000000000E+00   1.60250255579829E-11  -4.85943415315182E-08  -4.85783165059602E-08
      1.21932958127102E-29
      7.30000000000000E-02
      1.09500000000000E+00   1.09500000000000E+00   0.00000000000000E+00   0.00000000000000E+00   4.06570210278234E-08
      7.06617461450769E-08   1.11318767172900E-07   3.14170911555266E-28   0.00000000000000E+00   0.00000000000000E+00
      0.00000000000000E+00   0.00000000000000E+00   1.60400977743337E-11  -1.11334807270705E-07  -1.11318767172931E-07
      1.11288017338228E-29
      8.30000000000000E-02
      1.24500000000000E+00   1.24500000000000E+00   0.00000000000000E+00   0.00000000000000E+00   4.82686612431684E-08
      3.26269076396111E-07   3.74537737639279E-07   9.42319190287819E-29   0.00000000000000E+00   0.00000000000000E+00
      0.00000000000000E+00   0.00000000000000E+00   1.61034002799044E-11  -3.74553841039568E-07  -3.74537737639289E-07
     -1.05965546943791E-29
      9.30000000000000E-02
      1.39500000000000E+00   1.39500000000000E+00   0.00000000000000E+00   0.00000000000000E+00   8.58457564036651E-08
      1.25727542354318E-06   1.34312117994684E-06  -6.40389960639758E-29   0.00000000000000E+00   0.00000000000000E+00
      0.00000000000000E+00   0.00000000000000E+00   1.63354724575587E-11  -1.34313751541931E-06  -1.34312117994685E-06
     -8.32240825311963E-30
      1.03000000000000E-01
      1.54500000000000E+00   1.54500000000000E+00   0.00000000000000E+00   0.00000000000000E+00   2.47332137090115E-07
      4.13855755040153E-06   4.38588968749164E-06   5.44343563067418E-30   0.00000000000000E+00   0.00000000000000E+00
      0.00000000000000E+00   0.00000000000000E+00   1.70534810141070E-11  -4.38590674097266E-06  -4.38588968749164E-06
     -1.16610487732665E-29
      1.13000000000000E-01
      1.69500000000000E+00   1.69500000000000E+00   0.00000000000000E+00   0.00000000000000E+00   8.17019764308023E-07
      1.15872337203898E-05   1.24042534846978E-05   9.38690233200702E-29   0.00000000000000E+00   0.00000000000000E+00
      0.00000000000000E+00   0.00000000000000E+00   1.88664814140433E-11  -1.24042723511792E-05  -1.24042534846978E-05
      3.72572927610588E-30
      1.23000000000000E-01
      1.84500000000000E+00   1.84500000000000E+00   0.00000000000000E+00   0.00000000000000E+00   2.42767266286877E-06
      2.74243696753753E-05   2.98520423382441E-05   3.02461476687505E-28   0.00000000000000E+00   0.00000000000000E+00
      0.00000000000000E+00   0.00000000000000E+00   2.24448879312121E-11  -2.98520647831320E-05  -2.98520423382441E-05
      6.67728104029366E-30
      1.33000000000000E-01
      1.99500000000000E+00   1.99500000000000E+00   0.00000000000000E+00   0.00000000000000E+00   6.08909082528367E-06
      5.50043437239054E-05   6.10934345491891E-05   1.96447543649219E-29   0.00000000000000E+00   0.00000000000000E+00
      0.00000000000000E+00   0.00000000000000E+00   2.77735679003978E-11  -6.10934623227573E-05  -6.10934345491894E-05
     -3.31928608234888E-29
      1.43000000000000E-01
      2.14500000000000E+00   2.14500000000000E+00   0.00000000000000E+00   0.00000000000000E+00   1.29534947567794E-05
      9.50406039886879E-05   1.07994098745467E-04   1.36908454373267E-28   0.00000000000000E+00   0.00000000000000E+00
      0.00000000000000E+00   0.00000000000000E+00   3.37295396148787E-11  -1.07994132475007E-04  -1.07994098745467E-04
     -1.12739600173074E-29
      1.53000000000000E-01
      2.29500000000000E+00   2.29500000000000E+00   0.00000000000000E+00   0.00000000000000E+00   2.40054843284985E-05
      1.45180952730119E-04   1.69186437058617E-04   6.60712120327608E-29   0.00000000000000E+00   0.00000000000000E+00
      0.00000000000000E+00   0.00000000000000E+00   3.88321518157242E-11  -1.69186475890768E-04  -1.69186437058616E-04
     -1.83383298135601E-29
      1.63000000000000E-01
      2.44500000000000E+00   2.44500000000000E+00   0.00000000000000E+00   0.00000000000000E+00   3.99446822653698E-05
      2.01418112241009E-04   2.41362794506379E-04   1.66387682444274E-29   0.00000000000000E+00   0.00000000000000E+00
      0.00000000000000E+00   0.00000000000000E+00   4.22030898189095E-11  -2.41362836709468E-04  -2.41362794506378E-04
      1.17094348677613E-29
      1.73000000000000E-01
      2.59500000000000E+00   2.59500000000000E+00   0.00000000000000E+00   0.00000000000000E+00   6.12603936031808E-05
      2.59721789638810E-04   3.20982183241991E-04   4.93114785520962E-29   0.00000000000000E+00   0.00000000000000E+00
      0.00000000000000E+00   0.00000000000000E+00   4.37239470510351E-11  -3.20982226965936E-04  -3.20982183241989E-04
      1.74189940181574E-29
      1.83000000000000E-01
      2.74500000000000E+00   2.74500000000000E+00   0.00000000000000E+00   0.00000000000000E+00   8.83575924743122E-05
      3.16957683032076E-04   4.05315275506389E-04  -1.83111126354067E-29   0.00000000000000E+00   0.00000000000000E+00
      0.00000000000000E+00   0.00000000000000E+00   4.36806526449960E-11  -4.05315319187041E-04  -4.05315275506388E-04
      5.61278696140626E-30
      1.93000000000000E-01
      2.89500000000000E+00   2.89500000000000E+00   0.00000000000000E+00   0.00000000000000E+00   1.21637460169959E-04
      3.71004521002799E-04   4.92641981172758E-04   2.83361065885650E-30   0.00000000000000E+00   0.00000000000000E+00
      0.00000000000000E+00   0.00000000000000E+00   4.24373539117961E-11  -4.92642023610109E-04  -4.92641981172755E-04
      2.13382676722428E-29
      2.03000000000000E-01
      3.04500000000000E+00   3.04500000000000E+00   0.00000000000000E+00   0.00000000000000E+00   1.61608474247340E-04
      4.20761834329840E-04   5.82370308577180E-04  -1.68323126224069E-29   0.00000000000000E+00   0.00000000000000E+00
      0.00000000000000E+00   0.00000000000000E+00   4.02953565311911E-11  -5.82370348872536E-04  -5.82370308577180E-04
      8.46756653660427E-30
      2.13000000000000E-01
      3.19500000000000E+00   3.19500000000000E+00   0.00000000000000E+00   0.00000000000000E+00   2.08948654873988E-04
      4.65981223476551E-04   6.74929878350539E-04   1.03443421768245E-28   0.00000000000000E+00   0.00000000000000E+00
      0.00000000000000E+00   0.00000000000000E+00   3.74562131549400E-11  -6.74929915806754E-04  -6.74929878350541E-04
     -8.70949700907868E-31
      2.23000000000000E-01
      3.34500000000000E+00   3.34500000000000E+00   0.00000000000000E+00   0.00000000000000E+00   2.64478856665318E-04
      5.06897303353580E-04   7.71376160018898E-04   6.53091310444664E-29   0.00000000000000E+00   0.00000000000000E+00
      0.00000000000000E+00   0.00000000000000E+00   3.40343759561919E-11  -7.71376194053275E-04  -7.71376160018899E-04
      3.16445057996525E-29
      2.33000000000000E-01
      3.49500000000000E+00   3.49500000000000E+00   0.00000000000000E+00   0.00000000000000E+00   3.29137311938714E-04
      5.43946802306335E-04   8.73084114245049E-04  -9.78124900214031E-29   0.00000000000000E+00   0.00000000000000E+00
      0.00000000000000E+00   0.00000000000000E+00   3.00838411662047E-11  -8.73084144328891E-04  -8.73084114245050E-04
     -9.43528842650191E-30
      2.43000000000000E-01
      3.64500000000000E+00   3.64500000000000E+00   0.00000000000000E+00   0.00000000000000E+00   4.03951686877221E-04
      5.77617553318350E-04   9.81569240195571E-04  -3.31928608234888E-29   0.00000000000000E+00   0.00000000000000E+00
      0.00000000000000E+00   0.00000000000000E+00   2.56217185606273E-11  -9.81569265817290E-04  -9.81569240195572E-04
     -5.27408429994209E-30
      2.53000000000000E-01
      3.79500000000000E+00   3.79500000000000E+00   0.00000000000000E+00   0.00000000000000E+00   4.90009065802063E-04
      6.08375108414843E-04   1.09838417421691E-03   1.11288017338228E-28   0.00000000000000E+00   0.00000000000000E+00
      0.00000000000000E+00   0.00000000000000E+00   2.06454155713423E-11  -1.09838419486232E-03  -1.09838417421691E-03
      1.31610177026078E-29
      2.63000000000000E-01
      3.94500000000000E+00   3.94500000000000E+00   0.00000000000000E+00   0.00000000000000E+00   5.88434542127775E-04
      6.36627795747175E-04   1.22506233787495E-03  -2.88864984134443E-29   0.00000000000000E+00   0.00000000000000E+00
      0.00000000000000E+00   0.00000000000000E+00   1.51438858948143E-11  -1.22506235301883E-03  -1.22506233787495E-03
      5.80633133938579E-30
      2.73000000000000E-01
      4.09500000000000E+00   4.09500000000000E+00   0.00000000000000E+00   0.00000000000000E+00   7.00371775027216E-04
      6.62715583489119E-04   1.36308735851633E-03  -6.10390582052931E-29   0.00000000000000E+00   0.00000000000000E+00
      0.00000000000000E+00   0.00000000000000E+00   9.10441342559550E-12  -1.36308736762075E-03  -1.36308735851633E-03
     -2.22576034676455E-29
      2.83000000000000E-01
      4.24500000000000E+00   4.24500000000000E+00   0.00000000000000E+00   0.00000000000000E+00   8.26961614100834E-04
      6.86912490640189E-04   1.51387410474102E-03   2.86324714173462E-28   0.00000000000000E+00   0.00000000000000E+00
      0.00000000000000E+00   0.00000000000000E+00   2.51639585553568E-12  -1.51387410725741E-03  -1.51387410474101E-03
     -1.47093727264440E-29
      2.93000000000000E-01
      4.39500000000000E+00   4.39500000000000E+00   0.00000000000000E+00   0.00000000000000E+00   9.69318784041647E-04
      7.09435473565488E-04   1.67875425760713E-03  -8.96110470045207E-29   0.00000000000000E+00   0.00000000000000E+00
      0.00000000000000E+00   0.00000000000000E+00  -4.62674919851653E-12  -1.67875425298038E-03  -1.67875425760713E-03
      8.56433872559404E-30
      3.03000000000000E-01
      4.54500000000000E+00   4.54500000000000E+00   0.00000000000000E+00   0.00000000000000E+00   1.12851111571690E-03
      7.30455328321857E-04   1.85896644403876E-03   9.59012392888553E-29   0.00000000000000E+00   0.00000000000000E+00
      0.00000000000000E+00   0.00000000000000E+00  -1.23268444885526E-11  -1.85896643171191E-03  -1.85896644403876E-03
      2.51607691373384E-29
      3.13000000000000E-01
      4.69500000000000E+00   4.69500000000000E+00   0.00000000000000E+00   0.00000000000000E+00   1.30554583354552E-03
      7.50107019035645E-04   2.05565285258117E-03   1.83722000797065E-28   0.00000000000000E+00   0.00000000000000E+00
      0.00000000000000E+00   0.00000000000000E+00  -2.05808513536067E-11  -2.05565283200033E-03  -2.05565285258118E-03
     -1.47093727264440E-29
      3.23000000000000E-01
      4.84500000000000E+00   4.84500000000000E+00   0.00000000000000E+00   0.00000000000000E+00   1.50136322334688E-03
      7.68498650845585E-04   2.26986187419246E-03  -2.69704090714470E-28   0.00000000000000E+00   0.00000000000000E+00
      0.00000000000000E+00   0.00000000000000E+00  -2.93809081866274E-11  -2.26986184481155E-03  -2.26986187419246E-03
     -8.70949700907868E-31
      3.33000000000000E-01
      4.99500000000000E+00   4.99500000000000E+00   0.00000000000000E+00   0.00000000000000E+00   1.71683546341243E-03
      7.85717610889918E-04   2.50255307430235E-03  -9.27561431466880E-29   0.00000000000000E+00   0.00000000000000E+00
      0.00000000000000E+00   0.00000000000000E+00  -3.87140827203798E-11  -2.50255303558827E-03  -2.50255307430235E-03
      9.04819967054285E-30
      3.43000000000000E-01
      5.14500000000000E+00   5.14500000000000E+00   0.00000000000000E+00   0.00000000000000E+00   1.95276909429863E-03
      8.01836786299338E-04   2.75460588059797E-03   2.59978485720999E-28   0.00000000000000E+00   0.00000000000000E+00
      0.00000000000000E+00   0.00000000000000E+00  -4.85618722876609E-11  -2.75460583203611E-03  -2.75460588059798E-03
     -1.05481685998842E-29
      3.53000000000000E-01
      5.29500000000000E+00   5.29500000000000E+00   0.00000000000000E+00   0.00000000000000E+00   2.20990926184686E-03
      8.16918201684645E-04   3.02682746353150E-03   2.27027555369984E-28   0.00000000000000E+00   0.00000000000000E+00
      0.00000000000000E+00   0.00000000000000E+00  -5.88994773451885E-11  -3.02682740463205E-03  -3.02682746353152E-03
      4.35474850453934E-30
      3.63000000000000E-01
      5.44500000000000E+00   5.44500000000000E+00   0.00000000000000E+00   0.00000000000000E+00   2.48894427124081E-03
      8.31014981333281E-04   3.31995925257409E-03  -5.26682638576786E-28   0.00000000000000E+00   0.00000000000000E+00
      0.00000000000000E+00   0.00000000000000E+00  -6.96952142874932E-11  -3.31995918287888E-03  -3.31995925257410E-03
      9.77399108796608E-30
      3.73000000000000E-01
      5.59500000000000E+00   5.59500000000000E+00   0.00000000000000E+00   0.00000000000000E+00   2.79051031303278E-03
      8.44177931550024E-04   3.63468824458280E-03   7.98370559165546E-30   0.00000000000000E+00   0.00000000000000E+00
      0.00000000000000E+00   0.00000000000000E+00  -8.09107206840112E-11  -3.63468816367210E-03  -3.63468824458282E-03
     -6.33857837882948E-30
      3.83000000000000E-01
      5.74500000000000E+00   5.74500000000000E+00   0.00000000000000E+00   0.00000000000000E+00   3.11519168320491E-03
      8.56451899314462E-04   3.97164358251937E-03  -1.71673863267840E-28   0.00000000000000E+00   0.00000000000000E+00
      0.00000000000000E+00   0.00000000000000E+00  -9.25015792464145E-11  -3.97164349001779E-03  -3.97164358251937E-03
     -1.74189940181574E-30
      3.93000000000000E-01
      5.89500000000000E+00   5.89500000000000E+00   0.00000000000000E+00   0.00000000000000E+00   3.46351889368330E-03
      8.67880139001805E-04   4.33139903268510E-03  -1.65238512700021E-28   0.00000000000000E+00   0.00000000000000E+00
      0.00000000000000E+00   0.00000000000000E+00  -1.04419250227978E-10  -4.33139892826586E-03  -4.33139903268511E-03
     -2.20640590896660E-29
      4.03000000000000E-01
      6.04500000000000E+00   6.04500000000000E+00   0.00000000000000E+00   0.00000000000000E+00   3.83596268917931E-03
      8.78504450969087E-04   4.71446714014839E-03   2.06511851304155E-28   0.00000000000000E+00   0.00000000000000E+00
      0.00000000000000E+00   0.00000000000000E+00  -1.16613590617676E-10  -4.71446702353478E-03  -4.71446714014838E-03
      2.90316566969289E-30
      4.13000000000000E-01
      6.19500000000000E+00   6.19500000000000E+00   0.00000000000000E+00   0.00000000000000E+00   4.23292630660465E-03
      8.88365718998366E-04   5.12129202560301E-03  -4.73216004159942E-29   0.00000000000000E+00   0.00000000000000E+00
      0.00000000000000E+00   0.00000000000000E+00  -1.29035724288817E-10  -5.12129189656726E-03  -5.12129202560299E-03
      3.43541270913659E-30
      4.23000000000000E-01
      6.34500000000000E+00   6.34500000000000E+00   0.00000000000000E+00   0.00000000000000E+00   4.65473717905135E-03
      8.97504189954559E-04   5.55224136900591E-03  -4.06249649379026E-28   0.00000000000000E+00   0.00000000000000E+00
      0.00000000000000E+00   0.00000000000000E+00  -1.41640638525509E-10  -5.55224122736529E-03  -5.55224136900593E-03
      8.41918044210939E-30
      4.33000000000000E-01
      6.49500000000000E+00   6.49500000000000E+00   0.00000000000000E+00   0.00000000000000E+00   5.10164088343292E-03
      9.05962656426762E-04   6.00760353985968E-03  -7.10404639373851E-28   0.00000000000000E+00   0.00000000000000E+00
      0.00000000000000E+00   0.00000000000000E+00  -1.54389106898668E-10  -6.00760338547058E-03  -6.00760353985969E-03
      1.28223150411436E-29
      4.43000000000000E-01
      6.64500000000000E+00   6.64500000000000E+00   0.00000000000000E+00   0.00000000000000E+00   5.57378600467303E-03
      9.13774521765097E-04   6.48756052643812E-03  -6.26116062763767E-29   0.00000000000000E+00   0.00000000000000E+00
      0.00000000000000E+00   0.00000000000000E+00  -1.67247614955576E-10  -6.48756035919048E-03  -6.48756052643810E-03
      1.42738978759901E-29
      4.53000000000000E-01
      6.79500000000000E+00   6.79500000000000E+00   0.00000000000000E+00   0.00000000000000E+00   6.07122515191503E-03
      9.20977231325809E-04   6.99220238324084E-03   4.83183539625887E-28   0.00000000000000E+00   0.00000000000000E+00
      0.00000000000000E+00   0.00000000000000E+00  -1.80129513337285E-10  -6.99220220311132E-03  -6.99220238324084E-03
      5.22569820544721E-30
      4.63000000000000E-01
      6.94500000000000E+00   6.94500000000000E+00   0.00000000000000E+00   0.00000000000000E+00   6.59391601454680E-03
      9.27615980667883E-04   7.52153199521468E-03  -1.78254372119144E-28   0.00000000000000E+00   0.00000000000000E+00
      0.00000000000000E+00   0.00000000000000E+00  -1.92941408298959E-10  -7.52153180227329E-03  -7.52153199521469E-03
      1.79028549631062E-30
      4.73000000000000E-01
      7.09500000000000E+00   7.09500000000000E+00   0.00000000000000E+00   0.00000000000000E+00   7.14170216751797E-03
      9.33724140209090E-04   8.07542630772706E-03  -2.99993785868266E-29   0.00000000000000E+00   0.00000000000000E+00
      0.00000000000000E+00   0.00000000000000E+00  -2.05767467668521E-10  -8.07542610195959E-03  -8.07542630772706E-03
     -4.79022335499328E-30
      4.83000000000000E-01
      7.24500000000000E+00   7.24500000000000E+00   0.00000000000000E+00   0.00000000000000E+00   7.71432385811160E-03
      9.39337764086669E-04   8.65366162219827E-03   6.77211778550362E-28   0.00000000000000E+00   0.00000000000000E+00
      0.00000000000000E+00   0.00000000000000E+00  -1.86718281631414E-10  -8.65366143547997E-03  -8.65366162219825E-03
      5.61278696140626E-30
      4.93000000000000E-01
      7.39500000000000E+00   7.39500000000000E+00   0.00000000000000E+00   0.00000000000000E+00   8.31141610207730E-03
      9.44491601940031E-04   9.25590770401733E-03   2.04189318768400E-28   0.00000000000000E+00   0.00000000000000E+00
      0.00000000000000E+00   0.00000000000000E+00   1.86035511098669E-09  -9.25590956437243E-03  -9.25590770401732E-03
      5.75794524489091E-30
      5.03000000000000E-01
      7.54500000000000E+00   7.54500000000000E+00   0.00000000000000E+00   0.00000000000000E+00   8.93251150349034E-03
      9.49219143039855E-04   9.88173064653019E-03   2.32350025764421E-28   0.00000000000000E+00   0.00000000000000E+00
      0.00000000000000E+00   0.00000000000000E+00   2.89967853284598E-08  -9.88175964331549E-03  -9.88173064653016E-03
      7.06436979625271E-30
      5.13000000000000E-01
      7.69500000000000E+00   7.69500000000000E+00   0.00000000000000E+00   0.00000000000000E+00   9.57704414382857E-03
      9.53552481966314E-04   1.05305966257949E-02  -2.14060082045356E-28   0.00000000000000E+00   0.00000000000000E+00
      0.00000000000000E+00   0.00000000000000E+00   1.81162394633501E-07  -1.05307777881895E-02  -1.05305966257949E-02
      4.25797631554958E-30
      5.23000000000000E-01
      7.84500000000000E+00   7.84500000000000E+00   0.00000000000000E+00   0.00000000000000E+00   1.02443547055396E-02
      9.57522244618900E-04   1.12018769501585E-02  -1.49803348556153E-28   0.00000000000000E+00   0.00000000000000E+00
      0.00000000000000E+00   0.00000000000000E+00   6.96144018854608E-07  -1.12025730941773E-02  -1.12018769501585E-02
     -3.29025442565195E-30
      5.33000000000000E-01
      7.99500000000000E+00   7.99500000000000E+00   0.00000000000000E+00   0.00000000000000E+00   1.09336968930245E-02
      9.61157537077682E-04   1.18948544301022E-02   4.54248655117948E-28   0.00000000000000E+00   0.00000000000000E+00
      0.00000000000000E+00   0.00000000000000E+00   1.96510702810790E-06  -1.18968195371303E-02  -1.18948544301022E-02
     -1.45158283484645E-31
      5.43000000000000E-01
      8.14500000000000E+00   8.14500000000000E+00   0.00000000000000E+00   0.00000000000000E+00   1.16442452675937E-02
      9.64485915452141E-04   1.26087311830459E-02  -2.03608685634462E-28   0.00000000000000E+00   0.00000000000000E+00
      0.00000000000000E+00   0.00000000000000E+00   4.49963647644858E-06  -1.26132308195223E-02  -1.26087311830459E-02
     -4.35474850453934E-30
      5.53000000000000E-01
      8.29500000000000E+00   8.29500000000000E+00   0.00000000000000E+00   0.00000000000000E+00   1.23751046274700E-02
      9.67533371358576E-04   1.33426379988286E-02  -5.50536983162762E-28   0.00000000000000E+00   0.00000000000000E+00
      0.00000000000000E+00   0.00000000000000E+00   8.87851701151900E-06  -1.33515165158401E-02  -1.33426379988285E-02
      3.38702661464171E-31
      5.63000000000000E-01
      8.44500000000000E+00   8.44500000000000E+00   0.00000000000000E+00   0.00000000000000E+00   1.31253210580589E-02
      9.70324328388361E-04   1.40956453864473E-02   3.61057037120806E-28   0.00000000000000E+00   0.00000000000000E+00
      0.00000000000000E+00   0.00000000000000E+00   1.56982577931772E-05  -1.41113436442404E-02  -1.40956453864472E-02
     -3.04832395317754E-30
      5.73000000000000E-01
      8.59500000000000E+00   8.59500000000000E+00   0.00000000000000E+00   0.00000000000000E+00   1.38938946625606E-02
      9.72881646130782E-04   1.48667763086914E-02   4.96828418273444E-28   0.00000000000000E+00   0.00000000000000E+00
      0.00000000000000E+00   0.00000000000000E+00   2.55372863952590E-05  -1.48923135950867E-02  -1.48667763086914E-02
      8.66111091458380E-30
      5.83000000000000E-01
      8.74500000000000E+00   8.74500000000000E+00   0.00000000000000E+00   0.00000000000000E+00   1.46797937698528E-02
      9.75226629972099E-04   1.56550203998249E-02   5.76375157623029E-28   0.00000000000000E+00   0.00000000000000E+00
      0.00000000000000E+00   0.00000000000000E+00   3.89343488852828E-05  -1.56939547487102E-02  -1.56550203998249E-02
     -1.15158904897818E-29
      5.93000000000000E-01
      8.89500000000000E+00   8.89500000000000E+00   0.00000000000000E+00   0.00000000000000E+00   1.54819701557462E-02
      9.77379046675482E-04   1.64593492024217E-02   5.76375157623029E-28   0.00000000000000E+00   0.00000000000000E+00
      0.00000000000000E+00   0.00000000000000E+00   5.63781488176662E-05  -1.65157273512393E-02  -1.64593492024216E-02
     -8.61272482008892E-30
      6.03000000000000E-01
      9.04500000000001E+00   9.04500000000001E+00   0.00000000000000E+00   0.00000000000000E+00   1.62993877147777E-02
      9.79363571270189E-04   1.72787512860479E-02  -3.23219111225809E-29   0.00000000000000E+00   0.00000000000000E+00
      0.00000000000000E+00   0.00000000000000E+00   7.83053326569420E-05  -1.73570566187048E-02  -1.72787512860479E-02
     -5.51601477241650E-30
      6.13000000000000E-01
      9.19500000000001E+00   9.19500000000001E+00   0.00000000000000E+00   0.00000000000000E+00   1.71309843139384E-02
      9.81183763612274E-04   1.81121680775506E-02   5.50730527540742E-28   0.00000000000000E+00   0.00000000000000E+00
      0.00000000000000E+00   0.00000000000000E+00   1.05101228889654E-04  -1.82172693064403E-02  -1.81121680775507E-02
     -9.53206061549167E-30
      6.23000000000000E-01
      9.34500000000000E+00   9.34500000000000E+00   0.00000000000000E+00   0.00000000000000E+00   1.79757660578169E-02
      9.82861522578930E-04   1.89586275803958E-02  -9.27851748033849E-28   0.00000000000000E+00   0.00000000000000E+00
      0.00000000000000E+00   0.00000000000000E+00   1.37107844914881E-04  -1.90957354253107E-02  -1.89586275803958E-02
     -8.03209168615034E-30
      6.33000000000000E-01
      9.49500000000000E+00   9.49500000000000E+00   0.00000000000000E+00   0.00000000000000E+00   1.88327661525001E-02
      9.84411103051625E-04   1.98171772555518E-02  -3.54863617025461E-28   0.00000000000000E+00   0.00000000000000E+00
      0.00000000000000E+00   0.00000000000000E+00   1.74628620458258E-04  -1.99918058760100E-02  -1.98171772555517E-02
      4.35474850453934E-31
      6.43000000000000E-01
      9.64500000000000E+00   9.64500000000000E+00   0.00000000000000E+00   0.00000000000000E+00   1.97010664080999E-02
      9.85845053416731E-04   2.06869114615166E-02  -4.32184596028282E-28   0.00000000000000E+00   0.00000000000000E+00
      0.00000000000000E+00   0.00000000000000E+00   2.17935167130692E-04  -2.09048466286473E-02  -2.06869114615166E-02
      3.38702661464171E-30
      6.53000000000000E-01
      9.79500000000001E+00   9.79500000000001E+00   0.00000000000000E+00   0.00000000000000E+00   2.05798052498035E-02
      9.87174743535385E-04   2.15669799933389E-02  -5.80342817371610E-28   0.00000000000000E+00   0.00000000000000E+00
      0.00000000000000E+00   0.00000000000000E+00   2.67273066600219E-04  -2.18342530599391E-02  -2.15669799933389E-02
     -4.74183726049839E-30
      6.63000000000000E-01
      9.94500000000001E+00   9.94500000000001E+00   0.00000000000000E+00   0.00000000000000E+00   2.14681822256885E-02
      9.88410388222842E-04   2.24565926139113E-02   2.28479138204831E-28   0.00000000000000E+00   0.00000000000000E+00
      0.00000000000000E+00   0.00000000000000E+00   3.22866778648964E-04  -2.27794593925602E-02  -2.24565926139113E-02
     -2.46769081923896E-30
      6.73000000000000E-01
      1.00950000000000E+01   1.00950000000000E+01   0.00000000000000E+00   0.00000000000000E+00   2.23654603866875E-02
      9.89561129799723E-04   2.33550215164873E-02   5.05150826526564E-29   0.00000000000000E+00   0.00000000000000E+00
      0.00000000000000E+00   0.00000000000000E+00   3.84923725966737E-04  -2.37399452424540E-02  -2.33550215164873E-02
     -1.98382987429014E-30
      6.83000000000000E-01