DF-ISE text

Info {
  version   = 1.0
  type      = xyplot
  datasets  = [
    "time"
    "ntype OuterVoltage" "ntype InnerVoltage" "ntype QuasiFermiPotential" "ntype DisplacementCurrent" "ntype eCurrent"
    "ntype hCurrent" "ntype TotalCurrent" "ntype Charge" "ptype OuterVoltage" "ptype InnerVoltage"
    "ptype QuasiFermiPotential" "ptype DisplacementCurrent" "ptype eCurrent" "ptype hCurrent" "ptype TotalCurrent"
    "ptype Charge" ]
  functions = [
    Time
    OuterVoltage InnerVoltage QuasiFermiPotential DisplacementCurrent eCurrent
    hCurrent TotalCurrent Charge OuterVoltage InnerVoltage
    QuasiFermiPotential DisplacementCurrent eCurrent hCurrent TotalCurrent
    Charge ]
}

Data {
      0.00000000000000E+00
      0.00000000000000E+00   0.00000000000000E+00   0.00000000000000E+00   0.00000000000000E+00   3.21079276800070E-08
     -3.21079275699519E-08   1.10055080170151E-16  -1.72658520290811E-27   0.00000000000000E+00   0.00000000000000E+00
      0.00000000000000E+00   0.00000000000000E+00   1.60219199999982E-11  -1.60219202476222E-11  -2.47624032282693E-19
     -1.26771567576590E-29
      0.00000000000000E+00
      0.00000000000000E+00   0.00000000000000E+00   0.00000000000000E+00   0.00000000000000E+00   2.79097206215596E-08
     -2.79137210443535E-08  -4.00042279392107E-12   3.82830779643503E-28   0.00000000000000E+00   0.00000000000000E+00
      0.00000000000000E+00   0.00000000000000E+00   1.60721260790269E-11  -1.60219221942697E-11   5.02038847572133E-14
      2.80639348070313E-30
      0.00000000000000E+00
      0.00000000000000E+00   0.00000000000000E+00   0.00000000000000E+00   0.00000000000000E+00   2.76021593028002E-08
     -1.06857250371347E-08   1.69164342656656E-08   3.06163012916363E-28   0.00000000000000E+00   0.00000000000000E+00
      0.00000000000000E+00   0.00000000000000E+00   1.60749357741895E-11  -1.69325092013817E-08  -1.69164342656075E-08
     -1.95963682704270E-29
      1.00000000000000E-01
      1.00000000000000E-02   1.00000000000000E-02   0.00000000000000E+00   0.00000000000000E+00   2.82049724519893E-08
     -1.06199159984695E-08   1.75850564535198E-08  -2.23592142660848E-28   0.00000000000000E+00   0.00000000000000E+00
      0.00000000000000E+00   0.00000000000000E+00   1.60576589605795E-11  -1.76011141126728E-08  -1.75850564537122E-08
     -1.20965236237204E-29
      2.00000000000000E-01
      2.00000000000000E-02   2.00000000000000E-02   0.00000000000000E+00   0.00000000000000E+00   2.86719034193056E-08
     -1.05148078460134E-08   1.81570955732922E-08   2.08931156028899E-28   0.00000000000000E+00   0.00000000000000E+00
      0.00000000000000E+00   0.00000000000000E+00   1.60456241127483E-11  -1.81731411973317E-08  -1.81570955732190E-08
      2.48704525703691E-29
      3.00000000000000E-01
      3.00000000000000E-02   3.00000000000000E-02   0.00000000000000E+00   0.00000000000000E+00   2.90862302046717E-08
     -1.04370240964972E-08   1.86492061081745E-08  -3.11920958161254E-28   0.00000000000000E+00   0.00000000000000E+00
      0.00000000000000E+00   0.00000000000000E+00   1.60372800334578E-11  -1.86652433881659E-08  -1.86492061081325E-08
      7.74177511918105E-31
      4.00000000000000E-01
      4.00000000000000E-02   4.00000000000000E-02   0.00000000000000E+00   0.00000000000000E+00   2.94407477619562E-08
     -1.03650264490967E-08   1.90757213128596E-08   7.59419753097166E-29   0.00000000000000E+00   0.00000000000000E+00
      0.00000000000000E+00   0.00000000000000E+00   1.60315174130164E-11  -1.90917528295640E-08  -1.90757213121510E-08
      2.66123519721849E-30
      5.00000000000000E-01
      5.00000000000000E-02   5.00000000000000E-02   0.00000000000000E+00   0.00000000000000E+00   2.97449808839934E-08
     -1.02961516785221E-08   1.94488292054713E-08  -9.84657022970840E-29   0.00000000000000E+00   0.00000000000000E+00
      0.00000000000000E+00   0.00000000000000E+00   1.60275507703760E-11  -1.94648567559026E-08  -1.94488292051322E-08
     -9.67721889897631E-31
      6.00000000000000E-01
      6.00000000000000E-02   6.00000000000000E-02   0.00000000000000E+00   0.00000000000000E+00   3.00088416719261E-08
     -1.02300601386263E-08   1.97787815332998E-08  -5.19231180024574E-28   0.00000000000000E+00   0.00000000000000E+00
      0.00000000000000E+00   0.00000000000000E+00   1.60248284791650E-11  -1.97948063618614E-08  -1.97787815333823E-08
      1.53867780493723E-29
      7.00000000000000E-01
      7.00000000000000E-02   7.00000000000000E-02   0.00000000000000E+00   0.00000000000000E+00   3.02403201521324E-08
     -1.01662133014152E-08   2.00741068507172E-08   4.66103248269194E-28   0.00000000000000E+00   0.00000000000000E+00
      0.00000000000000E+00   0.00000000000000E+00   1.60229652611833E-11  -2.00901298166081E-08  -2.00741068513469E-08
     -1.33545620805873E-29
      8.00000000000000E-01
      8.00000000000000E-02   8.00000000000000E-02   0.00000000000000E+00   0.00000000000000E+00   3.04459808561071E-08
     -1.01041631461665E-08   2.03418177099406E-08   4.63466206119223E-28   0.00000000000000E+00   0.00000000000000E+00
      0.00000000000000E+00   0.00000000000000E+00   1.60216933457366E-11  -2.03578394026928E-08  -2.03418177093471E-08
      5.37085648893185E-30
      9.00000000000000E-01
      9.00000000000000E-02   9.00000000000000E-02   0.00000000000000E+00   0.00000000000000E+00   3.06311710115305E-08
     -1.00435595458601E-08   2.05876114656704E-08   1.35069782782462E-28   0.00000000000000E+00   0.00000000000000E+00
      0.00000000000000E+00   0.00000000000000E+00   1.60208276767680E-11  -2.06036322940657E-08  -2.05876114663890E-08
     -1.20481375292255E-29
      1.00000000000000E+00
      1.00000000000000E-01   1.00000000000000E-01   0.00000000000000E+00   0.00000000000000E+00   3.08001931255064E-08
     -9.98412795796509E-09   2.08160651675413E-08  -3.00138944151750E-28   0.00000000000000E+00   0.00000000000000E+00
      0.00000000000000E+00   0.00000000000000E+00   1.60202406567916E-11  -2.08320854083471E-08  -2.08160651676903E-08
     -1.27739289466487E-29
}
