DF-ISE text

Info {
  version   = 1.0
  type      = xyplot
  datasets  = [
    "time"
    "ntype OuterVoltage" "ntype InnerVoltage" "ntype QuasiFermiPotential" "ntype DisplacementCurrent" "ntype eCurrent"
    "ntype hCurrent" "ntype TotalCurrent" "ntype Charge" "ptype OuterVoltage" "ptype InnerVoltage"
    "ptype QuasiFermiPotential" "ptype DisplacementCurrent" "ptype eCurrent" "ptype hCurrent" "ptype TotalCurrent"
    "ptype Charge" ]
  functions = [
    Time
    OuterVoltage InnerVoltage QuasiFermiPotential DisplacementCurrent eCurrent
    hCurrent TotalCurrent Charge OuterVoltage InnerVoltage
    QuasiFermiPotential DisplacementCurrent eCurrent hCurrent TotalCurrent
    Charge ]
}

Data {
      0.00000000000000E+00
      0.00000000000000E+00   0.00000000000000E+00   0.00000000000000E+00   0.00000000000000E+00   3.21079276800070E-08
     -3.21079275704075E-08   1.09599463140833E-16  -1.82572831052812E-27   0.00000000000000E+00   0.00000000000000E+00
      0.00000000000000E+00   0.00000000000000E+00   1.60219199999982E-11  -1.60219202471864E-11  -2.47188198608752E-19
     -3.74992232335332E-29
      0.00000000000000E+00
      0.00000000000000E+00   0.00000000000000E+00   0.00000000000000E+00   0.00000000000000E+00   2.79082993709874E-08
     -2.79138646056211E-08  -5.56523463365526E-12  -1.97366879444622E-28   0.00000000000000E+00   0.00000000000000E+00
      0.00000000000000E+00   0.00000000000000E+00   1.60773998563712E-11  -1.60219221891025E-11   5.54776672686807E-14
      1.68383608842188E-29
      0.00000000000000E+00
      0.00000000000000E+00   0.00000000000000E+00   0.00000000000000E+00   0.00000000000000E+00   2.76011025380293E-08
     -1.06857498499976E-08   1.69153526880317E-08   1.66278813731661E-28   0.00000000000000E+00   0.00000000000000E+00
      0.00000000000000E+00   0.00000000000000E+00   1.60807877819114E-11  -1.69314334754413E-08  -1.69153526876594E-08
      1.50480753879082E-29
      1.00000000000000E-02
      2.00000000000000E-02   2.00000000000000E-02   0.00000000000000E+00   0.00000000000000E+00   2.86854877010171E-08
     -1.05286233483493E-08   1.81568643526678E-08  -7.01066123136339E-28   0.00000000000000E+00   0.00000000000000E+00
      0.00000000000000E+00   0.00000000000000E+00   1.60483918228398E-11  -1.81729127446910E-08  -1.81568643528681E-08
      2.43382055309254E-29
      2.00000000000000E-02
      4.00000000000000E-02   4.00000000000000E-02   0.00000000000000E+00   0.00000000000000E+00   2.94417472444222E-08
     -1.03658390708995E-08   1.90759081735228E-08  -4.97675174927104E-28   0.00000000000000E+00   0.00000000000000E+00
      0.00000000000000E+00   0.00000000000000E+00   1.60327991764040E-11  -1.90919409730011E-08  -1.90759081738247E-08
      1.49996892934133E-30
      3.00000000000000E-02
      6.00000000000000E-02   6.00000000000000E-02   0.00000000000000E+00   0.00000000000000E+00   3.00087943344344E-08
     -1.02296076666583E-08   1.97791866677761E-08   8.78038263751368E-28   0.00000000000000E+00   0.00000000000000E+00
      0.00000000000000E+00   0.00000000000000E+00   1.60254081429878E-11  -1.97952120764443E-08  -1.97791866683013E-08
      2.19672869006762E-29
      4.00000000000000E-02
      8.00000000000000E-02   8.00000000000000E-02   0.00000000000000E+00   0.00000000000000E+00   3.04466523712906E-08
     -1.01042927313153E-08   2.03423596399753E-08   3.56605516427277E-29   0.00000000000000E+00   0.00000000000000E+00
      0.00000000000000E+00   0.00000000000000E+00   1.60219455648807E-11  -2.03583815856575E-08  -2.03423596400927E-08
      1.91125073254782E-29
      5.00000000000000E-02
      1.00000000000000E-01   1.00000000000000E-01   0.00000000000000E+00   0.00000000000000E+00   3.08009067837449E-08
     -9.98419548912511E-09   2.08167112946197E-08  -2.44011074537688E-28   0.00000000000000E+00   0.00000000000000E+00
      0.00000000000000E+00   0.00000000000000E+00   1.60203442874356E-11  -2.08327316397911E-08  -2.08167112955037E-08
     -1.86770324750243E-29
      6.00000000000000E-02
      1.20000000000000E-01   1.20000000000000E-01   0.00000000000000E+00   0.00000000000000E+00   3.11034696723568E-08
     -9.86797608717254E-09   2.12354935851843E-08   6.77284357692105E-28   0.00000000000000E+00   0.00000000000000E+00
      0.00000000000000E+00   0.00000000000000E+00   1.60196182323278E-11  -2.12515132032058E-08  -2.12354935849735E-08
      1.37900369310412E-29
      7.00000000000000E-02
      1.40000000000000E-01   1.40000000000000E-01   0.00000000000000E+00   0.00000000000000E+00   3.13739629435260E-08
     -9.75442908628099E-09   2.16195338572450E-08  -3.83774308486153E-28   0.00000000000000E+00   0.00000000000000E+00
      0.00000000000000E+00   0.00000000000000E+00   1.60193023162289E-11  -2.16355531594709E-08  -2.16195338571547E-08
      1.19997514347306E-29
      8.00000000000000E-02
      1.60000000000000E-01   1.60000000000000E-01   0.00000000000000E+00   0.00000000000000E+00   3.16242882574970E-08
     -9.64277071789029E-09   2.19815175396067E-08   2.37116056072167E-28   0.00000000000000E+00   0.00000000000000E+00
      0.00000000000000E+00   0.00000000000000E+00   1.60191786295343E-11  -2.19975367182419E-08  -2.19815175396123E-08
      8.85465529256333E-30
      9.00000000000000E-02
      1.80000000000000E-01   1.80000000000000E-01   0.00000000000000E+00   0.00000000000000E+00   3.18614505090191E-08
     -9.53250154219376E-09   2.23289489668254E-08  -2.93751979678426E-28   0.00000000000000E+00   0.00000000000000E+00
      0.00000000000000E+00   0.00000000000000E+00   1.60191454345435E-11  -2.23449681120704E-08  -2.23289489666359E-08
      3.43541270913659E-30
      1.00000000000000E-01
      2.00000000000000E-01   2.00000000000000E-01   0.00000000000000E+00   0.00000000000000E+00   3.20895182224139E-08
     -9.42328084666162E-09   2.26662373757523E-08   1.60037007541821E-28   0.00000000000000E+00   0.00000000000000E+00
      0.00000000000000E+00   0.00000000000000E+00   1.60191553100713E-11  -2.26822565308229E-08  -2.26662373755128E-08
      1.93544377979526E-31
      1.10000000000000E-01
      2.20000000000000E-01   2.20000000000000E-01   0.00000000000000E+00   0.00000000000000E+00   3.23109087391583E-08
     -9.31485097481387E-09   2.29960577643444E-08   3.87451651667764E-28   0.00000000000000E+00   0.00000000000000E+00
      0.00000000000000E+00   0.00000000000000E+00   1.60191861629560E-11  -2.30120769502295E-08  -2.29960577640666E-08
      1.13707322062972E-29
      1.20000000000000E-01
      2.40000000000000E-01   2.40000000000000E-01   0.00000000000000E+00   0.00000000000000E+00   3.25270679963144E-08
     -9.20699702779516E-09   2.33200709685193E-08   2.62155859973268E-28   0.00000000000000E+00   0.00000000000000E+00
      0.00000000000000E+00   0.00000000000000E+00   1.60192276755582E-11  -2.33360901962549E-08  -2.33200709685794E-08
     -2.37575723969869E-29
      1.30000000000000E-01
      2.60000000000000E-01   2.60000000000000E-01   0.00000000000000E+00   0.00000000000000E+00   3.27388732677014E-08
     -9.09952224779640E-09   2.36393510199050E-08   8.14821831293806E-29   0.00000000000000E+00   0.00000000000000E+00
      0.00000000000000E+00   0.00000000000000E+00   1.60192749977900E-11  -2.36553702947918E-08  -2.36393510197940E-08
     -1.07417129778637E-29
      1.40000000000000E-01
      2.80000000000000E-01   2.80000000000000E-01   0.00000000000000E+00   0.00000000000000E+00   3.29469203982675E-08
     -8.99223021951108E-09   2.39546901787564E-08  -1.49464645894689E-28   0.00000000000000E+00   0.00000000000000E+00
      0.00000000000000E+00   0.00000000000000E+00   1.60193258301762E-11  -2.39707095047364E-08  -2.39546901789062E-08
      2.99993785868266E-30
      1.50000000000000E-01
      3.00000000000000E-01   3.00000000000000E-01   0.00000000000000E+00   0.00000000000000E+00   3.31516306881675E-08
     -8.88491583569056E-09   2.42667148524769E-08  -5.09553961125598E-28   0.00000000000000E+00   0.00000000000000E+00
      0.00000000000000E+00   0.00000000000000E+00   1.60193790581870E-11  -2.42827342313710E-08  -2.42667148523128E-08
      6.24180618983972E-30
      1.60000000000000E-01
      3.20000000000000E-01   3.20000000000000E-01   0.00000000000000E+00   0.00000000000000E+00   3.33532751964056E-08
     -8.77735948109809E-09   2.45759157153075E-08  -2.53712486483911E-28   0.00000000000000E+00   0.00000000000000E+00
      0.00000000000000E+00   0.00000000000000E+00   1.60194341107638E-11  -2.45919351493692E-08  -2.45759157152584E-08
      7.20952807973735E-30
      1.70000000000000E-01
      3.40000000000000E-01   3.40000000000000E-01   0.00000000000000E+00   0.00000000000000E+00   3.35520540266539E-08
     -8.66931787655541E-09   2.48827361500985E-08   1.99907149405603E-28   0.00000000000000E+00   0.00000000000000E+00
      0.00000000000000E+00   0.00000000000000E+00   1.60194906797795E-11  -2.48987556409355E-08  -2.48827361502557E-08
     -1.57738668053314E-29
      1.80000000000000E-01
      3.60000000000000E-01   3.60000000000000E-01   0.00000000000000E+00   0.00000000000000E+00   3.37481539465708E-08
     -8.56051519693421E-09   2.51876387496366E-08  -2.60970400658144E-28   0.00000000000000E+00   0.00000000000000E+00
      0.00000000000000E+00   0.00000000000000E+00   1.60195485957119E-11  -2.52036582980696E-08  -2.51876387494739E-08
      1.40803534980105E-29
      1.90000000000000E-01
      3.80000000000000E-01   3.80000000000000E-01   0.00000000000000E+00   0.00000000000000E+00   3.39417284722422E-08
     -8.45063604396666E-09   2.54910924282756E-08  -2.03487720398224E-28   0.00000000000000E+00   0.00000000000000E+00
      0.00000000000000E+00   0.00000000000000E+00   1.60196077592689E-11  -2.55071120359992E-08  -2.54910924282399E-08
     -9.14497185953262E-30
      2.00000000000000E-01
      4.00000000000000E-01   4.00000000000000E-01   0.00000000000000E+00   0.00000000000000E+00   3.41329043917810E-08
     -8.33931512780192E-09   2.57935892639791E-08  -9.09150522511577E-28   0.00000000000000E+00   0.00000000000000E+00
      0.00000000000000E+00   0.00000000000000E+00   1.60196681148024E-11  -2.58096089321242E-08  -2.57935892640094E-08
     -1.03546242219047E-29
      2.10000000000000E-01
      4.20000000000000E-01   4.20000000000000E-01   0.00000000000000E+00   0.00000000000000E+00   3.43218299375821E-08
     -8.22612260324979E-09   2.60957073343323E-08   1.95963682704270E-30   0.00000000000000E+00   0.00000000000000E+00
      0.00000000000000E+00   0.00000000000000E+00   1.60197296510968E-11  -2.61117270635407E-08  -2.60957073338896E-08
     -1.79512410576011E-29
      2.20000000000000E-01
      4.40000000000000E-01   4.40000000000000E-01   0.00000000000000E+00   0.00000000000000E+00   3.45086703990758E-08
     -8.11054866566018E-09   2.63981217334157E-08   4.00709441559362E-28   0.00000000000000E+00   0.00000000000000E+00
      0.00000000000000E+00   0.00000000000000E+00   1.60197923971460E-11  -2.64141415257838E-08  -2.63981217333866E-08
     -1.83867159080550E-30
      2.30000000000000E-01
      4.60000000000000E-01   4.60000000000000E-01   0.00000000000000E+00   0.00000000000000E+00   3.46935715553468E-08
     -7.99198518196527E-09   2.67015863733815E-08  -3.04324341325558E-28   0.00000000000000E+00   0.00000000000000E+00
      0.00000000000000E+00   0.00000000000000E+00   1.60198564140602E-11  -2.67176062297450E-08  -2.67015863733309E-08
      2.38543445859766E-29
      2.40000000000000E-01
      4.80000000000000E-01   4.80000000000000E-01   0.00000000000000E+00   0.00000000000000E+00   3.48766688999631E-08
     -7.86969963216936E-09   2.70069692677937E-08  -5.02029923431644E-28   0.00000000000000E+00   0.00000000000000E+00
      0.00000000000000E+00   0.00000000000000E+00   1.60199218013346E-11  -2.70229891896563E-08  -2.70069692678550E-08
     -9.53206061549167E-30
      2.50000000000000E-01
      5.00000000000000E-01   5.00000000000000E-01   0.00000000000000E+00   0.00000000000000E+00   3.50581036683997E-08
     -7.74280213283094E-09   2.73153015355687E-08  -7.82669271501957E-28   0.00000000000000E+00   0.00000000000000E+00
      0.00000000000000E+00   0.00000000000000E+00   1.60199887074159E-11  -2.73313215244613E-08  -2.73153015357539E-08
     -4.64506507150863E-30
      2.60000000000000E-01
      5.20000000000000E-01   5.20000000000000E-01   0.00000000000000E+00   0.00000000000000E+00   3.52379943624822E-08
     -7.61020496210397E-09   2.76277894003783E-08  -5.34642151121194E-28   0.00000000000000E+00   0.00000000000000E+00
      0.00000000000000E+00   0.00000000000000E+00   1.60200573319733E-11  -2.76438094577435E-08  -2.76277894004115E-08
      1.61609555612904E-29
      2.70000000000000E-01
      5.40000000000000E-01   5.40000000000000E-01   0.00000000000000E+00   0.00000000000000E+00   3.54164200757574E-08
     -7.47057023632232E-09   2.79458498394351E-08   5.13207111259961E-28   0.00000000000000E+00   0.00000000000000E+00
      0.00000000000000E+00   0.00000000000000E+00   1.60201279338835E-11  -2.79618699673526E-08  -2.79458498394187E-08
      8.08047778064522E-30
      2.80000000000000E-01
      5.60000000000000E-01   5.60000000000000E-01   0.00000000000000E+00   0.00000000000000E+00   3.55934399856028E-08
     -7.32224116145774E-09   2.82711988241450E-08   9.60222045250925E-29   0.00000000000000E+00   0.00000000000000E+00
      0.00000000000000E+00   0.00000000000000E+00   1.60202008521770E-11  -2.82872190250088E-08  -2.82711988241566E-08
     -6.72566713478854E-30
      2.90000000000000E-01
      5.80000000000000E-01   5.80000000000000E-01   0.00000000000000E+00   0.00000000000000E+00   3.57690944533770E-08
     -7.16315536717828E-09   2.86059390861987E-08   7.23976938879665E-28   0.00000000000000E+00   0.00000000000000E+00
      0.00000000000000E+00   0.00000000000000E+00   1.60202765271035E-11  -2.86219593626934E-08  -2.86059390861663E-08
      1.59190250888160E-29
      3.00000000000000E-01
      6.00000000000000E-01   6.00000000000000E-01   0.00000000000000E+00   0.00000000000000E+00   3.59433880261757E-08
     -6.99073612908761E-09   2.89526518970881E-08   1.00577755321786E-27   0.00000000000000E+00   0.00000000000000E+00
      0.00000000000000E+00   0.00000000000000E+00   1.60203555207462E-11  -2.89686722525577E-08  -2.89526518970370E-08
      9.43528842650191E-30
      3.10000000000000E-01
      6.20000000000000E-01   6.20000000000000E-01   0.00000000000000E+00   0.00000000000000E+00   3.61162925745656E-08
     -6.80175442767838E-09   2.93145381468873E-08   6.10826056903385E-28   0.00000000000000E+00   0.00000000000000E+00
      0.00000000000000E+00   0.00000000000000E+00   1.60204385466286E-11  -2.93305585853730E-08  -2.93145381468263E-08
      2.61284910272360E-30
      3.20000000000000E-01
      6.40000000000000E-01   6.40000000000000E-01   0.00000000000000E+00   0.00000000000000E+00   3.62877509261876E-08
     -6.59215547080603E-09   2.96955954553816E-08   4.36128062729615E-28   0.00000000000000E+00   0.00000000000000E+00
      0.00000000000000E+00   0.00000000000000E+00   1.60205265072445E-11  -2.97116159819140E-08  -2.96955954554067E-08
      1.52900058603826E-29
      3.30000000000000E-01
      6.60000000000000E-01   6.60000000000000E-01   0.00000000000000E+00   0.00000000000000E+00   3.64576822240584E-08
     -6.35684100112284E-09   3.01008412229356E-08  -8.25902246933133E-28   0.00000000000000E+00   0.00000000000000E+00
      0.00000000000000E+00   0.00000000000000E+00   1.60206205509722E-11  -3.01168618434554E-08  -3.01008412229044E-08
      8.22563606412987E-30
      3.40000000000000E-01
      6.80000000000000E-01   6.80000000000000E-01   0.00000000000000E+00   0.00000000000000E+00   3.66260131990272E-08
     -6.08939816864292E-09   3.05366150303843E-08   3.09429074294768E-28   0.00000000000000E+00   0.00000000000000E+00
      0.00000000000000E+00   0.00000000000000E+00   1.60207221555753E-11  -3.05526357524989E-08  -3.05366150303433E-08
      3.38702661464171E-30
      3.50000000000000E-01
      7.00000000000000E-01   7.00000000000000E-01   0.00000000000000E+00   0.00000000000000E+00   3.67926917389902E-08
     -5.78177023295139E-09   3.10109215060388E-08   1.54641958005642E-28   0.00000000000000E+00   0.00000000000000E+00
      0.00000000000000E+00   0.00000000000000E+00   1.60208332113482E-11  -3.10269423392320E-08  -3.10109215060206E-08
      4.02088445252466E-29
      3.60000000000000E-01
      7.20000000000000E-01   7.20000000000000E-01   0.00000000000000E+00   0.00000000000000E+00   3.69576611238470E-08
     -5.42384721771948E-09   3.15338139061275E-08  -3.40057472110028E-28   0.00000000000000E+00   0.00000000000000E+00
      0.00000000000000E+00   0.00000000000000E+00   1.60209561053031E-11  -3.15498348622665E-08  -3.15338139061612E-08
      0.00000000000000E+00
      3.70000000000000E-01
      7.40000000000000E-01   7.40000000000000E-01   0.00000000000000E+00   0.00000000000000E+00   3.71208729100043E-08
     -5.00296947053207E-09   3.21179034394722E-08  -2.15801981447172E-29   0.00000000000000E+00   0.00000000000000E+00
      0.00000000000000E+00   0.00000000000000E+00   1.60210938401195E-11  -3.21339245333116E-08  -3.21179034394714E-08
      1.67899747897239E-29
      3.80000000000000E-01
      7.60000000000000E-01   7.60000000000000E-01   0.00000000000000E+00   0.00000000000000E+00   3.72823218705853E-08
     -4.50331548064101E-09   3.27790063899443E-08   6.80211716409045E-28   0.00000000000000E+00   0.00000000000000E+00
      0.00000000000000E+00   0.00000000000000E+00   1.60212501902307E-11  -3.27950276401829E-08  -3.27790063899927E-08
     -8.22563606412987E-30
      3.90000000000000E-01
      7.80000000000000E-01   7.80000000000000E-01   0.00000000000000E+00   0.00000000000000E+00   3.74420702719138E-08
     -3.90516896688722E-09   3.35369013050266E-08  -7.95031918645399E-28   0.00000000000000E+00   0.00000000000000E+00
      0.00000000000000E+00   0.00000000000000E+00   1.60214298845718E-11  -3.35529227348991E-08  -3.35369013050145E-08
     -4.79022335499328E-30
      4.00000000000000E-01
      8.00000000000000E-01   8.00000000000000E-01   0.00000000000000E+00   0.00000000000000E+00   3.76002555177138E-08
     -3.18402389652381E-09   3.44162316211900E-08   2.05229619800040E-28   0.00000000000000E+00   0.00000000000000E+00
      0.00000000000000E+00   0.00000000000000E+00   1.60216388233650E-11  -3.44322532600171E-08  -3.44162316211937E-08
      1.08868712613484E-29
      4.10000000000000E-01
      8.20000000000000E-01   8.20000000000000E-01   0.00000000000000E+00   0.00000000000000E+00   3.77571284102573E-08
     -2.30951039255569E-09   3.54476180177016E-08   6.56889618862512E-28   0.00000000000000E+00   0.00000000000000E+00
      0.00000000000000E+00   0.00000000000000E+00   1.60218843453127E-11  -3.54636399020395E-08  -3.54476180176942E-08
     -2.85477957519801E-30
      4.20000000000000E-01
      8.40000000000000E-01   8.40000000000000E-01   0.00000000000000E+00   0.00000000000000E+00   3.79131460231605E-08
     -1.24415523107055E-09   3.66689907920899E-08   2.12245603501798E-28   0.00000000000000E+00   0.00000000000000E+00
      0.00000000000000E+00   0.00000000000000E+00   1.60221755481271E-11  -3.66850129676913E-08  -3.66689907921431E-08
     -1.40803534980105E-29
      4.30000000000000E-01
      8.60000000000000E-01   8.60000000000000E-01   0.00000000000000E+00   0.00000000000000E+00   3.80690708035528E-08
      5.81182480742152E-11   3.81271890516270E-08  -5.02247660856871E-29   0.00000000000000E+00   0.00000000000000E+00
      0.00000000000000E+00   0.00000000000000E+00   1.60225236738942E-11  -3.81432115753251E-08  -3.81271890516512E-08
      2.07576345383042E-29
      4.40000000000000E-01
      8.80000000000000E-01   8.80000000000000E-01   0.00000000000000E+00   0.00000000000000E+00   3.82258337056275E-08
      1.65404572178645E-09   3.98798794274140E-08  -4.41523112265794E-29   0.00000000000000E+00   0.00000000000000E+00
      0.00000000000000E+00   0.00000000000000E+00   1.60229425720177E-11  -3.98959023700126E-08  -3.98798794274406E-08
     -1.03062381274098E-29
      4.50000000000000E-01
      9.00000000000000E-01   9.00000000000000E-01   0.00000000000000E+00   0.00000000000000E+00   3.83840572798617E-08
      3.61377912416080E-09   4.19978364040225E-08   7.08614353877541E-29   0.00000000000000E+00   0.00000000000000E+00
      0.00000000000000E+00   0.00000000000000E+00   1.60234492502971E-11  -4.20138598532977E-08  -4.19978364040474E-08
      3.38702661464171E-31
      4.60000000000000E-01
      9.20000000000000E-01   9.20000000000000E-01   0.00000000000000E+00   0.00000000000000E+00   3.85451886242089E-08
      6.02245541721168E-09   4.45676440414206E-08  -2.98735747411399E-28   0.00000000000000E+00   0.00000000000000E+00
      0.00000000000000E+00   0.00000000000000E+00   1.60240645284698E-11  -4.45836681059406E-08  -4.45676440414121E-08
     -1.49513031989184E-29
      4.70000000000000E-01
      9.40000000000001E-01   9.40000000000001E-01   0.00000000000000E+00   0.00000000000000E+00   3.87111698589108E-08
      8.98373992552101E-09   4.76949097844319E-08  -1.12787986267569E-28   0.00000000000000E+00   0.00000000000000E+00
      0.00000000000000E+00   0.00000000000000E+00   1.60248138153784E-11  -4.77109345982224E-08  -4.76949097844070E-08
      9.04819967054285E-30
      4.80000000000000E-01
      9.60000000000001E-01   9.60000000000001E-01   0.00000000000000E+00   0.00000000000000E+00   3.88845897295918E-08
      1.26234635879030E-08   5.15080533174949E-08   5.78455759686309E-29   0.00000000000000E+00   0.00000000000000E+00
      0.00000000000000E+00   0.00000000000000E+00   1.60257280239862E-11  -5.15240790455421E-08  -5.15080533175181E-08
      9.82237718246096E-30
      4.90000000000000E-01
      9.80000000000001E-01   9.80000000000001E-01   0.00000000000000E+00   0.00000000000000E+00   3.90688500557446E-08
      1.70938954045546E-08   5.61627454602992E-08   3.29702847888123E-28   0.00000000000000E+00   0.00000000000000E+00
      0.00000000000000E+00   0.00000000000000E+00   1.60268446407504E-11  -5.61787723049285E-08  -5.61627454602878E-08
      7.69338902468617E-30
      5.00000000000000E-01
      1.00000000000000E+00   1.00000000000000E+00   0.00000000000000E+00   0.00000000000000E+00   3.92683901872282E-08
      2.25787139289435E-08   6.18471041161717E-08  -1.06594566172224E-28   0.00000000000000E+00   0.00000000000000E+00
      0.00000000000000E+00   0.00000000000000E+00   1.60282089744875E-11  -6.18631323251074E-08  -6.18471041161329E-08
     -5.85471743388067E-30
      5.10000000000000E-01
      1.02000000000000E+00   1.02000000000000E+00   0.00000000000000E+00   0.00000000000000E+00   3.94889703087841E-08
      2.92987817714942E-08   6.87877520802783E-08   1.32456933679738E-28   0.00000000000000E+00   0.00000000000000E+00
      0.00000000000000E+00   0.00000000000000E+00   1.60298756101343E-11  -6.88037819558739E-08  -6.87877520802637E-08
      5.03215382746768E-30
      5.20000000000000E-01
      1.04000000000000E+00   1.04000000000000E+00   0.00000000000000E+00   0.00000000000000E+00   3.97379028184362E-08
      3.75189744496129E-08   7.72568772680491E-08   2.02979666406028E-28   0.00000000000000E+00   0.00000000000000E+00
      0.00000000000000E+00   0.00000000000000E+00   1.60319101030273E-11  -7.72729091781647E-08  -7.72568772680616E-08
      1.34029481750822E-29
      5.30000000000000E-01
      1.06000000000000E+00   1.06000000000000E+00   0.00000000000000E+00   0.00000000000000E+00   4.00249826731455E-08
      4.75552946378833E-08   8.75802773110289E-08  -3.37904290905005E-28   0.00000000000000E+00   0.00000000000000E+00
      0.00000000000000E+00   0.00000000000000E+00   1.60343909111131E-11  -8.75963117019113E-08  -8.75802773110002E-08
      8.41918044210939E-30
      5.40000000000000E-01
      1.08000000000000E+00   1.08000000000000E+00   0.00000000000000E+00   0.00000000000000E+00   4.03621090322542E-08
      5.97846539746377E-08   1.00146763006892E-07  -1.73318990480666E-28   0.00000000000000E+00   0.00000000000000E+00
      0.00000000000000E+00   0.00000000000000E+00   1.60374116528938E-11  -1.00162800418537E-07  -1.00146763006884E-07
     -1.22416819072050E-29
      5.50000000000000E-01
      1.10000000000000E+00   1.10000000000000E+00   0.00000000000000E+00   0.00000000000000E+00   4.07645451090084E-08
      7.46542839364929E-08   1.15418829045501E-07  -2.87655331772071E-29   0.00000000000000E+00   0.00000000000000E+00
      0.00000000000000E+00   0.00000000000000E+00   1.60410836643516E-11  -1.15434870129147E-07  -1.15418829045482E-07
     -6.33857837882948E-30
      5.60000000000000E-01
      1.12000000000000E+00   1.12000000000000E+00   0.00000000000000E+00   0.00000000000000E+00   4.12514644934884E-08
      9.26933686807673E-08   1.33944833174256E-07   2.54317312665098E-28   0.00000000000000E+00   0.00000000000000E+00
      0.00000000000000E+00   0.00000000000000E+00   1.60455389087938E-11  -1.33960878713193E-07  -1.33944833174284E-07
      9.87076327695584E-30
      5.70000000000000E-01
      1.14000000000000E+00   1.14000000000000E+00   0.00000000000000E+00   0.00000000000000E+00   4.18468183182399E-08
      1.14525980014390E-07   1.56372798332630E-07   1.97778161247828E-28   0.00000000000000E+00   0.00000000000000E+00
      0.00000000000000E+00   0.00000000000000E+00   1.60509332620059E-11  -1.56388849265887E-07  -1.56372798332625E-07
     -2.37091863024920E-29
      5.80000000000000E-01
      1.16000000000000E+00   1.16000000000000E+00   0.00000000000000E+00   0.00000000000000E+00   4.25804451729336E-08
      1.40885567317848E-07   1.83466012490782E-07  -1.77093105851267E-29   0.00000000000000E+00   0.00000000000000E+00
      0.00000000000000E+00   0.00000000000000E+00   1.60574502084950E-11  -1.83482069941007E-07  -1.83466012490798E-07
     -1.09352573558432E-29
      5.90000000000000E-01
      1.18000000000000E+00   1.18000000000000E+00   0.00000000000000E+00   0.00000000000000E+00   4.34891671589103E-08
      1.72631224592278E-07   2.16120391751189E-07   4.56353450228475E-28   0.00000000000000E+00   0.00000000000000E+00
      0.00000000000000E+00   0.00000000000000E+00   1.60653049353767E-11  -2.16136457056121E-07  -2.16120391751185E-07
     -8.41918044210939E-30
      6.00000000000000E-01
      1.20000000000000E+00   1.20000000000000E+00   0.00000000000000E+00   0.00000000000000E+00   4.46180783540050E-08
      2.10765707703467E-07   2.55383786057472E-07  -1.16997576488624E-28   0.00000000000000E+00   0.00000000000000E+00
      0.00000000000000E+00   0.00000000000000E+00   1.60747488601612E-11  -2.55399860806306E-07  -2.55383786057446E-07
      1.04030103163995E-29
      6.10000000000000E-01
      1.22000000000000E+00   1.22000000000000E+00   0.00000000000000E+00   0.00000000000000E+00   4.60223605955618E-08
      2.56455180669437E-07   3.02477541264999E-07   1.10779963346031E-28   0.00000000000000E+00   0.00000000000000E+00
      0.00000000000000E+00   0.00000000000000E+00   1.60860746580152E-11  -3.02493627339653E-07  -3.02477541264995E-07
      1.14675043952869E-29
      6.20000000000000E-01
      1.24000000000000E+00   1.24000000000000E+00   0.00000000000000E+00   0.00000000000000E+00   4.77692136672482E-08
      3.11050779216505E-07   3.58819992883753E-07   1.52803286414836E-28   0.00000000000000E+00   0.00000000000000E+00
      0.00000000000000E+00   0.00000000000000E+00   1.60996216926329E-11  -3.58836092505449E-07  -3.58819992883756E-07
      1.07900990723586E-29
      6.30000000000000E-01
      1.26000000000000E+00   1.26000000000000E+00   0.00000000000000E+00   0.00000000000000E+00   4.99401340589860E-08
      3.76111993889670E-07   4.26052127948656E-07   5.99019849846634E-29   0.00000000000000E+00   0.00000000000000E+00
      0.00000000000000E+00   0.00000000000000E+00   1.61157818762142E-11  -4.26068243730528E-07  -4.26052127948652E-07
      5.17731211095233E-30
      6.40000000000000E-01
      1.28000000000000E+00   1.28000000000000E+00   0.00000000000000E+00   0.00000000000000E+00   5.26334776691459E-08
      4.53431867597003E-07   5.06065345266149E-07   7.35468636322200E-30   0.00000000000000E+00   0.00000000000000E+00
      0.00000000000000E+00   0.00000000000000E+00   1.61350058999678E-11  -5.06081480272058E-07  -5.06065345266158E-07
      1.98866848373963E-29
      6.50000000000000E-01
      1.30000000000000E+00   1.30000000000000E+00   0.00000000000000E+00   0.00000000000000E+00   5.59690481543900E-08
      5.45062458953493E-07   6.01031507107883E-07  -1.14360534338653E-28   0.00000000000000E+00   0.00000000000000E+00
      0.00000000000000E+00   0.00000000000000E+00   1.61578098362353E-11  -6.01047664917738E-07  -6.01031507107902E-07
      1.62577277502802E-29
      6.60000000000000E-01
      1.32000000000000E+00   1.32000000000000E+00   0.00000000000000E+00   0.00000000000000E+00   6.00889046942575E-08
      6.53345023527924E-07   7.13433928222182E-07  -2.96268056592160E-28   0.00000000000000E+00   0.00000000000000E+00
      0.00000000000000E+00   0.00000000000000E+00   1.61847817551771E-11  -7.13450113003954E-07  -7.13433928222199E-07
      9.96753546594560E-30
      6.70000000000000E-01
      1.34000000000000E+00   1.34000000000000E+00   0.00000000000000E+00   0.00000000000000E+00   6.51632348034029E-08
      7.80937938329918E-07   8.46101173133321E-07  -2.22188945920496E-28   0.00000000000000E+00   0.00000000000000E+00
      0.00000000000000E+00   0.00000000000000E+00   1.62165887794314E-11  -8.46117389722095E-07  -8.46101173133316E-07
     -1.86770324750243E-29
      6.80000000000000E-01
      1.36000000000000E+00   1.36000000000000E+00   0.00000000000000E+00   0.00000000000000E+00   7.13959620926214E-08
      9.30845601021429E-07   1.00224156311405E-06  -7.45871646638599E-29   0.00000000000000E+00   0.00000000000000E+00
      0.00000000000000E+00   0.00000000000000E+00   1.62539840405718E-11  -1.00225781709807E-06  -1.00224156311403E-06
      7.98370559165546E-30
      6.90000000000000E-01