DF-ISE text

Info {
  version   = 1.0
  type      = xyplot
  datasets  = [
    "time"
    "ntype OuterVoltage" "ntype InnerVoltage" "ntype QuasiFermiPotential" "ntype DisplacementCurrent" "ntype eCurrent"
    "ntype hCurrent" "ntype TotalCurrent" "ntype Charge" "ptype OuterVoltage" "ptype InnerVoltage"
    "ptype QuasiFermiPotential" "ptype DisplacementCurrent" "ptype eCurrent" "ptype hCurrent" "ptype TotalCurrent"
    "ptype Charge" ]
  functions = [
    Time
    OuterVoltage InnerVoltage QuasiFermiPotential DisplacementCurrent eCurrent
    hCurrent TotalCurrent Charge OuterVoltage InnerVoltage
    QuasiFermiPotential DisplacementCurrent eCurrent hCurrent TotalCurrent
    Charge ]
}

Data {
      0.00000000000000E+00
      0.00000000000000E+00   0.00000000000000E+00   0.00000000000000E+00   0.00000000000000E+00  -1.31047739106532E-22
      1.10054979212260E-16   1.10054848164521E-16  -1.72658520290811E-27   0.00000000000000E+00   0.00000000000000E+00
      0.00000000000000E+00   0.00000000000000E+00  -1.81228052444215E-24  -2.47622229168300E-19  -2.47624041448824E-19
     -1.26771567576590E-29
      0.00000000000000E+00
      0.00000000000000E+00   0.00000000000000E+00   0.00000000000000E+00   0.00000000000000E+00   1.99763975551293E-22
      1.16040058714514E-16   1.16040258478489E-16  -7.19235101619167E-28   0.00000000000000E+00   0.00000000000000E+00
      0.00000000000000E+00   0.00000000000000E+00   2.93639636823184E-24  -2.37022266802424E-19  -2.37019330406056E-19
     -3.38702661464171E-31
      0.00000000000000E+00
      0.00000000000000E+00   0.00000000000000E+00   0.00000000000000E+00   0.00000000000000E+00   1.98635558014326E-22
     -3.15677632364718E-18  -3.15657768808917E-18   3.14146718508019E-28   0.00000000000000E+00   0.00000000000000E+00
      0.00000000000000E+00   0.00000000000000E+00   2.90036131685253E-24  -4.10436389449412E-20  -4.10407385836243E-20
     -5.80633133938579E-31
      1.00000000000000E-01
      1.00000000000000E-02   1.00000000000000E-02   0.00000000000000E+00   0.00000000000000E+00   2.19870189171388E-10
      1.48662302163332E-11   2.34736419387721E-10  -3.55565215395637E-28   0.00000000000000E+00   0.00000000000000E+00
      0.00000000000000E+00   0.00000000000000E+00  -2.15969695736194E-15  -2.34734259655844E-10  -2.34736419352801E-10
      1.36932647420515E-29
      2.00000000000000E-01
      2.00000000000000E-02   2.00000000000000E-02   0.00000000000000E+00   0.00000000000000E+00   3.95328073919874E-10
      5.11124262305347E-11   4.46440500150409E-10   4.87731832508406E-29   0.00000000000000E+00   0.00000000000000E+00
      0.00000000000000E+00   0.00000000000000E+00  -3.71308886518185E-15  -4.46436786996168E-10  -4.46440500085033E-10
      4.25797631554958E-30
      3.00000000000000E-01
      3.00000000000000E-02   3.00000000000000E-02   0.00000000000000E+00   0.00000000000000E+00   5.63130977470097E-10
      7.55119338370772E-11   6.38642911307175E-10  -1.95189505192352E-28   0.00000000000000E+00   0.00000000000000E+00
      0.00000000000000E+00   0.00000000000000E+00  -4.81848947862917E-15  -6.38638092583284E-10  -6.38642911072762E-10
      1.99350709318912E-29
      4.00000000000000E-01
      4.00000000000000E-02   4.00000000000000E-02   0.00000000000000E+00   0.00000000000000E+00   7.19054648237148E-10
      9.54566502822476E-11   8.14511298519395E-10  -4.88288272595097E-28   0.00000000000000E+00   0.00000000000000E+00
      0.00000000000000E+00   0.00000000000000E+00  -5.59775843712907E-15  -8.14505700614652E-10  -8.14511298373089E-10
     -1.54835502383621E-30
      5.00000000000000E-01
      5.00000000000000E-02   5.00000000000000E-02   0.00000000000000E+00   0.00000000000000E+00   8.63544866587138E-10
      1.13413942987109E-10   9.76958809574247E-10  -2.90582690489011E-28   0.00000000000000E+00   0.00000000000000E+00
      0.00000000000000E+00   0.00000000000000E+00  -6.14225233396957E-15  -9.76952667002285E-10  -9.76958809254619E-10
      3.18864362721270E-29
      6.00000000000000E-01
      6.00000000000000E-02   6.00000000000000E-02   0.00000000000000E+00   0.00000000000000E+00   9.98219706389423E-10
      1.30211466462504E-10   1.12843117285193E-09  -3.67927862539079E-28   0.00000000000000E+00   0.00000000000000E+00
      0.00000000000000E+00   0.00000000000000E+00  -6.51929349729665E-15  -1.12842465354993E-09  -1.12843117284343E-09
     -2.06124762548195E-29
      7.00000000000000E-01
      7.00000000000000E-02   7.00000000000000E-02   0.00000000000000E+00   0.00000000000000E+00   1.12520708226183E-09
      1.45835429433139E-10   1.27104251169497E-09   1.11529947810702E-29   0.00000000000000E+00   0.00000000000000E+00
      0.00000000000000E+00   0.00000000000000E+00  -6.77776451532975E-15  -1.27103573413190E-09  -1.27104251189642E-09
     -4.20959022105470E-30
      8.00000000000000E-01
      8.00000000000000E-02   8.00000000000000E-02   0.00000000000000E+00   0.00000000000000E+00   1.24604370347619E-09
      1.60485458440570E-10   1.40652916191676E-09   5.00263830982581E-28   0.00000000000000E+00   0.00000000000000E+00
      0.00000000000000E+00   0.00000000000000E+00  -6.95272574160088E-15  -1.40652220941862E-09  -1.40652916214436E-09
      9.19335795402750E-31
      9.00000000000000E-01
      9.00000000000000E-02   9.00000000000000E-02   0.00000000000000E+00   0.00000000000000E+00   1.36193028552977E-09
      1.74367865052001E-10   1.53629815058177E-09  -2.99848627584781E-28   0.00000000000000E+00   0.00000000000000E+00
      0.00000000000000E+00   0.00000000000000E+00  -7.06916948399995E-15  -1.53629108102980E-09  -1.53629815019928E-09
     -6.19342009534484E-30
      1.00000000000000E+00
      1.00000000000000E-01   1.00000000000000E-01   0.00000000000000E+00   0.00000000000000E+00   1.47383577922385E-09
      1.87638804391990E-10   1.66147458361584E-09  -1.26795760623837E-28   0.00000000000000E+00   0.00000000000000E+00
      0.00000000000000E+00   0.00000000000000E+00  -7.14474062977378E-15  -1.66146743865561E-09  -1.66147458339624E-09
     -6.04826181186020E-30
}
