DF-ISE text

Info {
  version   = 1.0
  type      = xyplot
  datasets  = [
    "time"
    "ntype OuterVoltage" "ntype InnerVoltage" "ntype QuasiFermiPotential" "ntype DisplacementCurrent" "ntype eCurrent"
    "ntype hCurrent" "ntype TotalCurrent" "ntype Charge" "ptype OuterVoltage" "ptype InnerVoltage"
    "ptype QuasiFermiPotential" "ptype DisplacementCurrent" "ptype eCurrent" "ptype hCurrent" "ptype TotalCurrent"
    "ptype Charge" ]
  functions = [
    Time
    OuterVoltage InnerVoltage QuasiFermiPotential DisplacementCurrent eCurrent
    hCurrent TotalCurrent Charge OuterVoltage InnerVoltage
    QuasiFermiPotential DisplacementCurrent eCurrent hCurrent TotalCurrent
    Charge ]
}

Data {
      1.00000000000000E-15
      1.49999996618428E+01   1.49999996618424E+01   0.00000000000000E+00   2.03147497684166E-16   4.83837346342956E-09
     -9.39805913555970E-24   4.83837366657705E-09   6.63615285997301E-29   0.00000000000000E+00   1.01543541456642E-12
      0.00000000000000E+00   1.84926133558663E-10  -5.02329980013570E-09   2.39931795439755E-25  -4.83837366657704E-09
     -2.82187703094149E-28
      2.30000000000000E-15
      1.49999996616451E+01   1.49999996616446E+01   0.00000000000000E+00   4.26663212567188E-16   4.83837270972561E-09
      1.05319439358657E-23   4.83837313638883E-09  -1.15461317988411E-28   0.00000000000000E+00   4.39385222800808E-13
      0.00000000000000E+00   7.05823732087990E-11  -4.90895550959763E-09   2.03891192898051E-25  -4.83837313638883E-09
      6.10632512525405E-28
      3.99000000000000E-15
      1.49999996614327E+01   1.49999996614322E+01   0.00000000000000E+00  -9.64316815676008E-16   4.83837210170986E-09
      6.84971897040681E-24   4.83837113739305E-09  -6.60470189855133E-30   0.00000000000000E+00   4.25975891168509E-13
      0.00000000000000E+00  -5.90905082720428E-12  -4.83246208656585E-09  -4.47160367292196E-25  -4.83837113739305E-09
      8.91658949351678E-28
      6.18700000000000E-15
      1.49999996615833E+01   1.49999996615829E+01   0.00000000000000E+00  -4.19443822259154E-15   4.83837178515290E-09
      1.03684535693100E-24   4.83836759071468E-09   9.69657333677427E-29   0.00000000000000E+00   5.29944133687429E-13
      0.00000000000000E+00   2.80724545722445E-11  -4.86644004528691E-09  -4.17188747176839E-24  -4.83836759071467E-09
     -7.17081920414145E-28
      9.04310000000000E-15
      1.49999996614064E+01   1.49999996614059E+01   0.00000000000000E+00  -9.81895323704093E-15   4.83837104452318E-09
      3.24554747027129E-24   4.83836122556995E-09  -1.35323809778560E-28   0.00000000000000E+00   4.64550680795670E-13
      0.00000000000000E+00  -1.86168386404898E-11  -4.81974438692945E-09   1.64733746227309E-24  -4.83836122556994E-09
      9.36754789420907E-28
      1.27560300000000E-14
      1.49999996611479E+01   1.49999996611474E+01   0.00000000000000E+00  -1.92211613900965E-14   4.83837115415217E-09
     -4.15581964019138E-24   4.83835193299077E-09  -6.47768840050227E-29   0.00000000000000E+00   4.54264070228427E-13
      0.00000000000000E+00  -7.32876380875955E-11  -4.76506429490317E-09  -4.79840929664388E-26  -4.83835193299077E-09
      5.32440583821677E-28
      1.75828390000000E-14
      1.49999996607716E+01   1.49999996607711E+01   0.00000000000000E+00  -2.77226091617851E-14   4.83837328803509E-09
      2.59053122748986E-24   4.83834556542594E-09   1.75641523016420E-29   0.00000000000000E+00   4.36262501735752E-13
      0.00000000000000E+00  -1.47824635075128E-10  -4.69052093035080E-09  -1.49395914793809E-24  -4.83834556542593E-09
      6.58050885130389E-30
      2.38576907000000E-14
      1.49999996611821E+01   1.49999996611816E+01   0.00000000000000E+00  -1.95583721146215E-14   4.83837652742948E-09
      4.07249229207587E-24   4.83835696905737E-09  -6.60954050800082E-29   0.00000000000000E+00   5.02390712525171E-13
      0.00000000000000E+00   2.24880708912549E-11  -4.86084503994862E-09  -5.29359804927753E-25  -4.83835696905737E-09
     -4.99344495187178E-29
      3.20149979100000E-14
      1.49999996614758E+01   1.49999996614753E+01   0.00000000000000E+00   5.60477066602593E-15   4.83837626291976E-09
     -9.65120550958151E-25   4.83838186769042E-09   2.64913867359477E-30   0.00000000000000E+00   4.98900612511285E-13
      0.00000000000000E+00   7.64212723967272E-11  -4.91480314008716E-09   1.69039068083994E-24  -4.83838186769043E-09
      4.10314081316596E-28
      4.26194972830000E-14
      1.49999996615452E+01   1.49999996615447E+01   0.00000000000000E+00   2.14501171818247E-14   4.83837391971559E-09
      8.79894605037475E-24   4.83839536983278E-09  -5.71076880275840E-29   0.00000000000000E+00   4.98165854613625E-13
      0.00000000000000E+00   4.77923823177682E-11  -4.88618775215054E-09  -1.10381027767291E-24  -4.83839536983278E-09
     -1.59287023077150E-28
      5.64053464679000E-14
      1.49999996614489E+01   1.49999996614484E+01   0.00000000000000E+00   1.70114005940480E-15   4.83837097084813E-09
      9.07107840244819E-25   4.83837267198819E-09  -1.70730334425190E-28   0.00000000000000E+00   4.86960796674307E-13
      0.00000000000000E+00   1.10053992323662E-11  -4.84937807122055E-09  -3.26006146352957E-24  -4.83837267198819E-09
     -1.73802851425615E-28
      7.43269504082700E-14
      1.49999996611461E+01   1.49999996611456E+01   0.00000000000000E+00  -4.51202336611500E-14   4.83837177658834E-09
     -3.44911934604716E-25   4.83832665635468E-09   5.67931784133672E-29   0.00000000000000E+00   4.75939428209404E-13
      0.00000000000000E+00  -4.76727713109767E-11  -4.79065388504370E-09   9.06747320913327E-26  -4.83832665635468E-09
      4.14378513254166E-28
      9.76250355307510E-14
      1.49999996612203E+01   1.49999996612198E+01   0.00000000000000E+00  -4.39208277487504E-14   4.83837482412536E-09
      1.53259033939037E-24   4.83833090329761E-09  -3.24307798351944E-29   0.00000000000000E+00   4.79613217697705E-13
      0.00000000000000E+00  -1.14972966662105E-11  -4.82683360663140E-09   1.82296084941642E-24  -4.83833090329761E-09
     -2.10963371997684E-28
      1.27912546189976E-13
      1.49999996613933E+01   1.49999996613928E+01   0.00000000000000E+00   1.49016191405203E-15   4.83837447620328E-09
      7.97411078168702E-25   4.83837596636519E-09   1.03691400502531E-28   0.00000000000000E+00   4.87144486148722E-13
      0.00000000000000E+00   2.46924370641791E-11  -4.86306840342938E-09   2.17479269507533E-24  -4.83837596636520E-09
      4.39345738013525E-28
      1.67286310046969E-13
      1.49999996609875E+01   1.49999996609870E+01   0.00000000000000E+00   5.55809836774674E-14   4.83837820745782E-09
      1.25518410452481E-25   4.83843378844150E-09  -6.45228570089246E-29   0.00000000000000E+00   4.74837291362913E-13
      0.00000000000000E+00  -7.44692235165032E-11  -4.76396456492500E-09  -1.02794361960883E-25  -4.83843378844150E-09
      1.03739786597026E-28
      2.17286310046969E-13
      1.49999996613623E+01   1.49999996613618E+01   0.00000000000000E+00   2.35160720832654E-13   4.83837774902439E-09
     -9.27148594854879E-25   4.83861290974523E-09   1.09146932656829E-28   0.00000000000000E+00   4.82368559813930E-13
      0.00000000000000E+00   6.64475333611400E-12  -4.84525766308133E-09  -3.28123888408906E-24  -4.83861290974522E-09
     -8.18692718853396E-29
      2.67286310046969E-13
      1.49999996613569E+01   1.49999996613564E+01   0.00000000000000E+00   2.43922896170331E-13   4.83837382913047E-09
     -4.61253788998906E-24   4.83861775202663E-09   4.33660371910376E-29   0.00000000000000E+00   4.84021765083666E-13
      0.00000000000000E+00  -1.68536615797457E-12  -4.83693238586865E-09  -1.83145468486638E-24  -4.83861775202663E-09
      4.68183850332474E-28
      3.17286310046969E-13
      1.49999996613564E+01   1.49999996613559E+01   0.00000000000000E+00   1.65093424060749E-13   4.83837239736152E-09
      7.16404238481723E-24   4.83853749078559E-09   1.60157972778058E-29   0.00000000000000E+00   4.84389144032496E-13
      0.00000000000000E+00   3.34220325121021E-12  -4.84187969403681E-09   2.13278292245934E-24  -4.83853749078559E-09
      1.52512969847867E-28
      3.67286310046969E-13
      1.49999996613516E+01   1.49999996613511E+01   0.00000000000000E+00   8.95601861916569E-14   4.83837220148374E-09
      1.09696762076118E-25   4.83846176166993E-09   7.52645699867883E-29   0.00000000000000E+00   4.84205454558081E-13
      0.00000000000000E+00   8.05304676426858E-13  -4.83926706634636E-09  -1.73111906474628E-24  -4.83846176166993E-09
      4.41087637415340E-28
      4.17286310046969E-13
      1.49999996613339E+01   1.49999996613334E+01   0.00000000000000E+00   3.76352940218704E-14   4.83837252130825E-09
     -2.39539756418138E-24   4.83841015660227E-09   2.57897883657719E-29   0.00000000000000E+00   4.84205454558081E-13
      0.00000000000000E+00   1.14403723643760E-12  -4.83955419383870E-09  -6.88015092220572E-26  -4.83841015660226E-09
      1.26578023198610E-28
      4.67286310046969E-13
      1.49999996613591E+01   1.49999996613586E+01   0.00000000000000E+00   4.85807054185804E-15   4.83837237255810E-09
     -2.26355049437835E-24   4.83837723062864E-09   2.02495805461079E-29   0.00000000000000E+00   4.84572833506911E-13
      0.00000000000000E+00   2.85638276152214E-12  -4.84123361339017E-09  -1.28111883517716E-24  -4.83837723062865E-09
      2.06318306926175E-28
      5.17286310046969E-13
      1.49999996613380E+01   1.49999996613375E+01   0.00000000000000E+00  -2.89497605119077E-14   4.83837241370171E-09
     -1.37268621313326E-23   4.83834346394118E-09  -4.99707390895889E-29   0.00000000000000E+00   4.84205454558081E-13
      0.00000000000000E+00   4.33530761691696E-13  -4.83877699470287E-09  -8.88272250257178E-25  -4.83834346394118E-09
     -7.16114198524247E-29
      5.67286310046969E-13
      1.49999996613263E+01   1.49999996613259E+01   0.00000000000000E+00  -4.55275989026829E-14   4.83837288335104E-09
      5.10195421309790E-24   4.83832735575214E-09   3.42331618551287E-30   0.00000000000000E+00   4.84205454558081E-13
      0.00000000000000E+00   1.61685478030705E-12  -4.83994421053245E-09  -4.03343877797812E-25  -4.83832735575214E-09
     -4.68183850332474E-28
      6.17286310046969E-13
      1.49999996613322E+01   1.49999996613317E+01   0.00000000000000E+00  -4.46900318122235E-14   4.83837313325015E-09
      1.63764608460943E-23   4.83832844321835E-09   6.50792970956157E-30   0.00000000000000E+00   4.84389144032496E-13
      0.00000000000000E+00   1.66505315655464E-12  -4.83999349637491E-09   2.38049472507270E-24  -4.83832844321836E-09
     -2.16963247715049E-28
      6.67286310046969E-13
      1.49999996613389E+01   1.49999996613384E+01   0.00000000000000E+00  -4.81470988889050E-14   4.83837293891736E-09
     -1.20244527660360E-25   4.83832479181847E-09  -5.16521558732861E-30   0.00000000000000E+00   4.83838075609251E-13
      0.00000000000000E+00  -1.45498706556655E-12  -4.83686980475290E-09   3.01235532621998E-25  -4.83832479181847E-09
     -4.81925501169020E-28
      7.17286310046969E-13
      1.49999996613280E+01   1.49999996613275E+01   0.00000000000000E+00  -5.16566539866112E-14   4.83837315747656E-09
     -9.30312924530152E-24   4.83832150082256E-09  -4.66200020458184E-29   0.00000000000000E+00   4.83654386134836E-13
      0.00000000000000E+00  -1.67919206881604E-12  -4.83664230875375E-09  -2.15579229625043E-25  -4.83832150082256E-09
      2.09221472595868E-28
      7.67286310046969E-13
      1.49999996613468E+01   1.49999996613463E+01   0.00000000000000E+00  -5.08834345167035E-14   4.83837295856925E-09
      4.38681570648628E-24   4.83832207513474E-09   6.17164635282214E-29   0.00000000000000E+00   4.84205454558081E-13
      0.00000000000000E+00   1.99915200143964E-12  -4.84032122713617E-09  -8.78200370190506E-25  -4.83832207513474E-09
      3.18961134910259E-28
      8.17286310046969E-13
      1.49999996613418E+01   1.49999996613414E+01   0.00000000000000E+00  -5.75643933350884E-14   4.83837286274929E-09
      7.36866903715152E-24   4.83831529835596E-09   4.53135774944566E-29   0.00000000000000E+00   4.84389144032496E-13
      0.00000000000000E+00   1.97223470309604E-12  -4.84028753305906E-09   3.73044803123937E-25  -4.83831529835597E-09
     -1.63351455014720E-28
      8.67286310046969E-13
      1.49999996613334E+01   1.49999996613329E+01   0.00000000000000E+00  -6.03750925256190E-14   4.83837309364842E-09
      6.96152528559978E-26   4.83831271855590E-09   4.86159284437323E-29   0.00000000000000E+00   4.84389144032496E-13
      0.00000000000000E+00   1.41958488430877E-12  -4.83973230344021E-09  -1.53326399551265E-24  -4.83831271855590E-09
     -1.70319052621983E-28
      9.17286310046969E-13
      1.49999996613262E+01   1.49999996613257E+01   0.00000000000000E+00  -5.21013262693063E-14   4.83837337688160E-09
      2.58525734469774E-24   4.83832127555534E-09   6.63373355524826E-29   0.00000000000000E+00   4.84389144032496E-13
      0.00000000000000E+00   1.06284003524830E-12  -4.83938411559059E-09   1.64347372509472E-24  -4.83832127555534E-09
      2.05931218170216E-28
      9.67286310046969E-13
      1.49999996613412E+01   1.49999996613407E+01   0.00000000000000E+00  -4.24482439916428E-14   4.83837324295656E-09
     -7.55958359422630E-24   4.83833079471256E-09  -1.04864763294032E-28   0.00000000000000E+00   4.84572833506911E-13
      0.00000000000000E+00   4.22658242423560E-12  -4.84255737713681E-09  -1.33206639704846E-24  -4.83833079471257E-09
      1.97415265539117E-28
      1.01728631004697E-12
      1.49999996613305E+01   1.49999996613300E+01   0.00000000000000E+00  -4.45877069987465E-14   4.83837307047512E-09
     -1.53680944562407E-24   4.83832848276812E-09   5.83052438663323E-29   0.00000000000000E+00   4.84205454558081E-13
      0.00000000000000E+00   1.03836959780577E-12  -4.83936685236592E-09   6.24538968552278E-25  -4.83832848276811E-09
      2.12124638265561E-28
      1.06728631004697E-12
      1.49999996613293E+01   1.49999996613288E+01   0.00000000000000E+00  -4.05399521589991E-14   4.83837336144544E-09
     -3.20757551416802E-24   4.83833282149328E-09   1.38021334546650E-29   0.00000000000000E+00   4.84389144032496E-13
      0.00000000000000E+00   2.57788679885686E-12  -4.84091070829214E-09   1.28618464681224E-24  -4.83833282149328E-09
     -1.38384230255361E-28
      1.11728631004697E-12
      1.49999996613261E+01   1.49999996613257E+01   0.00000000000000E+00  -2.88121621978873E-14   4.83837358006526E-09
     -6.19153839795010E-24   4.83834476790306E-09   4.46603652187757E-29   0.00000000000000E+00   4.84389144032496E-13
      0.00000000000000E+00   1.65646442448779E-12  -4.84000123232755E-09   3.93505614257947E-24  -4.83834476790306E-09
      2.86639223787678E-28
      1.16728631004697E-12
      1.49999996613383E+01   1.49999996613378E+01   0.00000000000000E+00  -2.07160444864542E-14   4.83837338568140E-09
     -3.02193483988536E-24   4.83835266963691E-09  -6.69542582572924E-29   0.00000000000000E+00   4.84756522981326E-13
      0.00000000000000E+00   4.14172456850597E-12  -4.84249439420542E-09  -9.09137049053507E-26  -4.83835266963691E-09
      2.76187827376784E-28
      1.21728631004697E-12
      1.49999996613189E+01   1.49999996613185E+01   0.00000000000000E+00  -1.56283403123563E-14   4.83837357317953E-09
      9.38751136997546E-25   4.83835794483922E-09  -3.55758759773617E-29   0.00000000000000E+00   4.84205454558081E-13
      0.00000000000000E+00   1.13694092565683E-13  -4.83847163893177E-09  -2.12684156387634E-24  -4.83835794483921E-09
      3.55928111104349E-28
      1.26728631004697E-12
      1.49999996613332E+01   1.49999996613327E+01   0.00000000000000E+00  -5.19505102820322E-15   4.83837355662248E-09
      2.62639363047628E-25   4.83836836157145E-09  -2.59954292673751E-29   0.00000000000000E+00   4.83654386134836E-13
      0.00000000000000E+00  -2.72878738845336E-12  -4.83563957418299E-09  -1.62644382193024E-24  -4.83836836157145E-09
      1.61609555612904E-28
      1.31728631004697E-12
      1.49999996613243E+01   1.49999996613238E+01   0.00000000000000E+00  -2.85633501742096E-15   4.83837346667195E-09
     -3.93431656292230E-24   4.83837061033693E-09  -3.31565712526176E-29   0.00000000000000E+00   4.83838075609251E-13
      0.00000000000000E+00   5.32046102020855E-13  -4.83890265643895E-09  -1.77756219508440E-24  -4.83837061033693E-09
      1.36642330853546E-28
      1.36728631004697E-12
      1.49999996613460E+01   1.49999996613456E+01   0.00000000000000E+00  -3.41696127405019E-15   4.83837322816030E-09
     -3.20124685481747E-24   4.83836981119902E-09   1.27787675560982E-28   0.00000000000000E+00   4.84389144032496E-13
      0.00000000000000E+00   2.65746710523957E-12  -4.84102727830427E-09  -1.72348841558143E-26  -4.83836981119903E-09
      1.12642827984084E-28
      1.41728631004697E-12
      1.49999996613550E+01   1.49999996613545E+01   0.00000000000000E+00  -1.59254484226792E-14   4.83837276473101E-09
      5.81709271970951E-24   4.83835683928260E-09   5.74584872126719E-29   0.00000000000000E+00   4.84756522981326E-13
      0.00000000000000E+00   5.05428723118668E-12  -4.84341112651378E-09   8.79900991379918E-25  -4.83835683928259E-09
      5.46375779036203E-28
      1.46728631004697E-12
      1.49999996613263E+01   1.49999996613259E+01   0.00000000000000E+00  -2.97195429091316E-14   4.83837314676114E-09
      3.55881610812328E-24   4.83834342721824E-09   1.79512410576011E-29   0.00000000000000E+00   4.84389144032496E-13
      0.00000000000000E+00   8.77669845854761E-13  -4.83922109706409E-09   2.34617740493554E-24  -4.83834342721824E-09
     -5.35730838247329E-28
      1.51728631004697E-12
      1.49999996613221E+01   1.49999996613216E+01   0.00000000000000E+00  -2.77340907509953E-14   4.83837338679762E-09
     -2.64010572573579E-24   4.83834565270686E-09   1.08735650853623E-28   0.00000000000000E+00   4.84021765083666E-13
      0.00000000000000E+00   7.08292739392467E-13  -4.83905394544625E-09  -8.85330412512198E-25  -4.83834565270686E-09
     -2.93993910150900E-28
      1.56728631004697E-12
      1.49999996613378E+01   1.49999996613373E+01   0.00000000000000E+00  -1.83036298311211E-14   4.83837343732139E-09
      9.56787816146600E-24   4.83835513369157E-09   1.20916850142709E-28   0.00000000000000E+00   4.84572833506911E-13
      0.00000000000000E+00   3.72759230922946E-12  -4.84208272600080E-09   2.22271189456210E-24  -4.83835513369157E-09
      3.24767466249645E-28
      1.61728631004697E-12
      1.49999996613282E+01   1.49999996613277E+01   0.00000000000000E+00  -1.42599722622404E-14   4.83837345553572E-09
     -1.54946676432516E-24   4.83835919556346E-09  -2.01649048807419E-29   0.00000000000000E+00   4.84389144032496E-13
      0.00000000000000E+00   1.37472268077063E-12  -4.83973391824423E-09  -2.22785290022918E-24  -4.83835919556346E-09
     -2.15801981447172E-28
      1.66728631004697E-12
      1.49999996613353E+01   1.49999996613349E+01   0.00000000000000E+00  -9.72600192534097E-15   4.83837340606802E-09
      1.73194310893255E-24   4.83836368006609E-09   6.91800186040569E-29   0.00000000000000E+00   4.84205454558081E-13
      0.00000000000000E+00   1.12884212557996E-12  -4.83949252219168E-09   1.06123294462363E-24  -4.83836368006610E-09
     -1.43416384082829E-28
      1.71728631004697E-12
      1.49999996613446E+01   1.49999996613441E+01   0.00000000000000E+00  -9.17628353130022E-15   4.83837326494885E-09
      6.42042491112816E-24   4.83836408866532E-09   1.24630482895191E-28   0.00000000000000E+00   4.84389144032496E-13
      0.00000000000000E+00   2.91313107604772E-12  -4.84127721974137E-09  -1.33454986021483E-24  -4.83836408866532E-09
      7.70306624358515E-29
      1.76728631004697E-12
      1.49999996613148E+01   1.49999996613143E+01   0.00000000000000E+00  -8.85572282407365E-15   4.83837356409911E-09
     -3.31094361689359E-24   4.83836470837628E-09  -1.13271847212518E-28   0.00000000000000E+00   4.84205454558081E-13
      0.00000000000000E+00   3.58179596557653E-13  -4.83872288797283E-09  -1.22852936526471E-24  -4.83836470837628E-09
     -5.22569820544721E-30
      1.81728631004697E-12
      1.49999996613244E+01   1.49999996613239E+01   0.00000000000000E+00   4.71641556299941E-15   4.83837379938114E-09
     -3.93431656292230E-25   4.83837851579670E-09   1.22174888599576E-29   0.00000000000000E+00   4.84205454558081E-13
      0.00000000000000E+00   1.39277856433214E-12  -4.83977129436103E-09   2.25473322158527E-24  -4.83837851579669E-09
      9.67721889897631E-29
      1.86728631004697E-12
      1.49999996613136E+01   1.49999996613131E+01   0.00000000000000E+00   1.77882076111647E-14   4.83837390325266E-09
      6.56176496995700E-24   4.83839169146028E-09  -2.62010701689784E-29   0.00000000000000E+00   4.83838075609251E-13
      0.00000000000000E+00  -1.13295024638721E-12  -4.83725874121390E-09   1.58611612950947E-24  -4.83839169146028E-09
     -2.51607691373384E-30
      1.91728631004697E-12
      1.49999996613236E+01   1.49999996613231E+01   0.00000000000000E+00   3.10102562986965E-14   4.83837389340046E-09
     -3.49341996150098E-24   4.83840490365675E-09   1.17965298378521E-28   0.00000000000000E+00   4.84205454558081E-13
      0.00000000000000E+00   1.09667320590740E-12  -4.83950157686266E-09   1.78846635977920E-24  -4.83840490365676E-09
      1.10513839826310E-28
      1.96728631004697E-12
      1.49999996613445E+01   1.49999996613441E+01   0.00000000000000E+00   3.19168677959934E-14   4.83837337788365E-09
     -1.81632523360649E-24   4.83840529475144E-09  -8.58974142520385E-29   0.00000000000000E+00   4.84572833506911E-13
      0.00000000000000E+00   5.00241856718798E-12  -4.84340771331863E-09  -1.61953318137314E-24  -4.83840529475144E-09
      5.06505637172420E-28
      2.01728631004697E-12
      1.49999996613456E+01   1.49999996613452E+01   0.00000000000000E+00   1.15259252402169E-14   4.83837286051868E-09
     -5.34560759809389E-24   4.83838438644392E-09   3.96765974858029E-30   0.00000000000000E+00   4.84389144032496E-13
      0.00000000000000E+00   2.67696125105002E-12  -4.84106134769497E-09  -2.32776825781429E-24  -4.83838438644392E-09
      4.08765726292760E-28
      2.06728631004697E-12
      1.49999996613282E+01   1.49999996613277E+01   0.00000000000000E+00  -6.75725948741364E-15   4.83837312350016E-09
     -2.20975688989872E-24   4.83836636624067E-09  -6.99420995923513E-29   0.00000000000000E+00   4.84389144032496E-13
      0.00000000000000E+00   1.79103369987181E-12  -4.84015739994054E-09   3.22866692511557E-25  -4.83836636624067E-09
      1.36061697719607E-28
      2.11728631004697E-12
      1.49999996613316E+01   1.49999996613311E+01   0.00000000000000E+00  -6.01619219760540E-15   4.83837350349836E-09
     -3.56092566124013E-24   4.83836748730616E-09  -4.83860944948816E-31   0.00000000000000E+00   4.84389144032496E-13
      0.00000000000000E+00   1.80372479677737E-12  -4.84017121210294E-09   1.63666918022660E-24  -4.83836748730616E-09
     -5.41730713964694E-28
      2.16728631004697E-12
      1.49999996613409E+01   1.49999996613404E+01   0.00000000000000E+00  -3.50101408053865E-15   4.83837332977557E-09
     -6.55438153404803E-24   4.83836982876148E-09  -2.09741623111688E-28   0.00000000000000E+00   4.84756522981326E-13
      0.00000000000000E+00   5.07223704782862E-12  -4.84344206580932E-09   4.72811832755514E-25  -4.83836982876149E-09
     -6.01535926760368E-28
      2.21728631004697E-12
      1.49999996613212E+01   1.49999996613208E+01   0.00000000000000E+00  -2.84018232487340E-15   4.83837362502546E-09
      2.93016927930245E-24   4.83837078484314E-09  -3.08461352404870E-30   0.00000000000000E+00   4.84389144032496E-13
      0.00000000000000E+00  -2.93453152433025E-13  -4.83807733169071E-09   1.35981093474491E-24  -4.83837078484314E-09
      4.56958276409661E-28
      2.26728631004697E-12
      1.49999996613311E+01   1.49999996613306E+01   0.00000000000000E+00   5.06525349246942E-15   4.83837360382543E-09
     -2.94599092767881E-24   4.83837866907892E-09   2.60559118854937E-29   0.00000000000000E+00   4.83838075609251E-13
      0.00000000000000E+00  -1.98121389483322E-12  -4.83639745518409E-09   3.69274800971757E-25  -4.83837866907892E-09
     -1.12062194850146E-28
      2.31728631004697E-12
      1.49999996613520E+01   1.49999996613515E+01   0.00000000000000E+00   1.15960789849596E-15   4.83837312887462E-09
      5.53652215516867E-24   4.83837428848252E-09   2.90679462678001E-29   0.00000000000000E+00   4.84389144032496E-13
      0.00000000000000E+00   4.08068555610840E-12  -4.84245497403863E-09  -1.16349270791867E-24  -4.83837428848252E-09
      1.74577028937533E-28
      2.36728631004697E-12
      1.49999996613271E+01   1.49999996613266E+01   0.00000000000000E+00  -1.26033371456215E-14   4.83837322621628E-09
      3.89001594746848E-24   4.83836062287914E-09   1.73403666146032E-28   0.00000000000000E+00   4.84389144032496E-13
      0.00000000000000E+00   2.09635395025524E-12  -4.84045697682939E-09  -1.78043913934971E-24  -4.83836062287914E-09
      3.77798625816035E-28
      2.41728631004697E-12
      1.49999996613348E+01   1.49999996613343E+01   0.00000000000000E+00  -1.03169256192074E-14   4.83837352503467E-09
      4.79712378771330E-24   4.83836320810906E-09   7.32928366361219E-29   0.00000000000000E+00   4.84756522981326E-13
      0.00000000000000E+00   4.20892100319426E-12  -4.84257212911225E-09   1.30944741419062E-24  -4.83836320810905E-09
     -9.23593771718299E-28
      2.46728631004697E-12
      1.49999996613176E+01   1.49999996613171E+01   0.00000000000000E+00  -2.48317290443621E-15   4.83837382761885E-09
      4.12523111999708E-24   4.83837134444595E-09   4.54950253488124E-29   0.00000000000000E+00   4.84021765083666E-13
      0.00000000000000E+00  -8.40716964476524E-13  -4.83753062748147E-09  -2.48942306594513E-24  -4.83837134444595E-09
     -1.55416135517560E-28
      2.51728631004697E-12
      1.49999996613167E+01   1.49999996613162E+01   0.00000000000000E+00   6.16930286994775E-15   4.83837377635384E-09
      3.80246949311927E-24   4.83837994565672E-09  -5.01884765148159E-29   0.00000000000000E+00   4.83654386134836E-13
      0.00000000000000E+00  -9.29463591742214E-13  -4.83745048206498E-09   7.32550560267476E-25  -4.83837994565672E-09
      3.68314951295038E-28
      2.56728631004697E-12
      1.49999996613250E+01   1.49999996613246E+01   0.00000000000000E+00   1.53633354621024E-14   4.83837384657941E-09
      4.76337093784373E-24   4.83838920991488E-09   4.28700797224651E-29   0.00000000000000E+00   4.84205454558081E-13
      0.00000000000000E+00   1.23184675921122E-12  -4.83962105667409E-09  -8.09611052346413E-25  -4.83838920991488E-09
      5.04763737770605E-28
      2.61728631004697E-12
      1.49999996613433E+01   1.49999996613428E+01   0.00000000000000E+00   1.72137820662140E-14   4.83837340908313E-09
     -2.84578715462851E-24   4.83839062286519E-09  -1.08384851668535E-29   0.00000000000000E+00   4.84572833506911E-13
      0.00000000000000E+00   3.84745316536907E-12  -4.84223807603056E-09  -1.95464929071359E-24  -4.83839062286519E-09
     -4.99538039565157E-28
      2.66728631004697E-12
      1.49999996613200E+01   1.49999996613195E+01   0.00000000000000E+00   1.06294358526646E-14   4.83837356511042E-09
      4.03452033597260E-24   4.83838419454628E-09   7.27001069785596E-29   0.00000000000000E+00   4.84205454558081E-13
      0.00000000000000E+00  -3.30194469380526E-13  -4.83805400007690E-09  -4.37824152672816E-24  -4.83838419454629E-09
      6.06568080587835E-28
      2.71728631004697E-12
      1.49999996613217E+01   1.49999996613212E+01   0.00000000000000E+00   1.51113689440599E-14   4.83837374941941E-09
      4.30770746460447E-24   4.83838886078836E-09   1.19416881213368E-28   0.00000000000000E+00   4.84021765083666E-13
      0.00000000000000E+00  -2.93742675969076E-13  -4.83809511811239E-09  -1.40298466977400E-24  -4.83838886078836E-09
      1.50771070446051E-28
      2.76728631004697E-12
      1.49999996613394E+01   1.49999996613389E+01   0.00000000000000E+00   1.77241925598730E-14   4.83837346603644E-09
     -2.07790982009569E-24   4.83839119022900E-09  -2.92372975985322E-29   0.00000000000000E+00   4.84389144032496E-13
      0.00000000000000E+00   2.61643856083086E-12  -4.84100762878982E-09   7.32612363581446E-25  -4.83839119022899E-09
     -2.32446797953411E-28
      2.81728631004697E-12
      1.49999996613384E+01   1.49999996613379E+01   0.00000000000000E+00   9.64361063177977E-15   4.83837328372972E-09
     -1.57488687938319E-23   4.83838292734034E-09   5.31037387081325E-29   0.00000000000000E+00   4.84389144032496E-13
      0.00000000000000E+00   2.40209375642993E-12  -4.84078502109677E-09   8.35021484885248E-25  -4.83838292734034E-09
     -8.59337038229097E-28
      2.86728631004697E-12
      1.49999996613297E+01   1.49999996613292E+01   0.00000000000000E+00   1.61523376890028E-15   4.83837334362929E-09
      6.75056997391493E-25   4.83837495886306E-09   2.99267994450842E-29   0.00000000000000E+00   4.84205454558081E-13
      0.00000000000000E+00   1.06958646901622E-12  -4.83944454533207E-09   4.07687517709159E-24  -4.83837495886305E-09
     -3.91540276652582E-28
      2.91728631004697E-12
      1.49999996613403E+01   1.49999996613398E+01   0.00000000000000E+00  -1.10495366223021E-15   4.83837334049153E-09
     -7.22838375488110E-24   4.83837223553786E-09   1.28344115647673E-28   0.00000000000000E+00   4.84389144032496E-13
      0.00000000000000E+00   3.14833013661941E-12  -4.84152056567448E-09   3.20993022043028E-25  -4.83837223553786E-09
      3.66185963137264E-28
      2.96728631004697E-12
      1.49999996613401E+01   1.49999996613396E+01   0.00000000000000E+00  -7.85938576575808E-15   4.83837317993647E-09
     -7.63130840019915E-24   4.83836532055070E-09  -8.32966616729386E-29   0.00000000000000E+00   4.84940212455741E-13
      0.00000000000000E+00   5.75940911902593E-12  -4.84412472966973E-09   1.87371270079349E-24  -4.83836532055070E-09
      5.69794648771725E-28
      3.01728631004697E-12