DF-ISE text

Info {
  version   = 1.0
  type      = xyplot
  datasets  = [
    "time"
    "ntype OuterVoltage" "ntype InnerVoltage" "ntype QuasiFermiPotential" "ntype DisplacementCurrent" "ntype eCurrent"
    "ntype hCurrent" "ntype TotalCurrent" "ntype Charge" "ptype OuterVoltage" "ptype InnerVoltage"
    "ptype QuasiFermiPotential" "ptype DisplacementCurrent" "ptype eCurrent" "ptype hCurrent" "ptype TotalCurrent"
    "ptype Charge" ]
  functions = [
    Time
    OuterVoltage InnerVoltage QuasiFermiPotential DisplacementCurrent eCurrent
    hCurrent TotalCurrent Charge OuterVoltage InnerVoltage
    QuasiFermiPotential DisplacementCurrent eCurrent hCurrent TotalCurrent
    Charge ]
}

Data {
      1.00000000000000E-02
      1.00000000000000E-01   9.99999992915722E-02   0.00000000000000E+00   0.00000000000000E+00   7.08427656676863E-06
     -1.25431816841083E-17   7.08427656675609E-06   1.06147770922831E-13   0.00000000000000E+00   7.08427656675610E-10
      0.00000000000000E+00   0.00000000000000E+00  -7.08427656666161E-06  -9.45246839604703E-17  -7.08427656675614E-06
     -1.08231009127084E-13
      2.00000000000000E-02
      2.00000000000000E-01   1.99999999285861E-01   0.00000000000000E+00   0.00000000000000E+00   7.14139753603834E-06
      1.12202201018972E-17   7.14139753604956E-06   1.15821694715687E-13   0.00000000000000E+00   7.14139753604957E-10
      0.00000000000000E+00   0.00000000000000E+00  -7.14139753636255E-06   3.12977052331443E-16  -7.14139753604957E-06
     -1.17904931072671E-13
      3.00000000000000E-02
      3.00000000000000E-01   2.99999999280380E-01   0.00000000000000E+00   0.00000000000000E+00   7.19620800550663E-06
      4.01429124046027E-18   7.19620800551064E-06   1.24925601616998E-13   0.00000000000000E+00   7.19620800551065E-10
      0.00000000000000E+00   0.00000000000000E+00  -7.19620800518323E-06  -3.27354663607851E-16  -7.19620800551058E-06
     -1.27008836223490E-13
      4.00000000000000E-02
      4.00000000000000E-01   3.99999999275077E-01   0.00000000000000E+00   0.00000000000000E+00   7.24923858723536E-06
      6.69115955768850E-19   7.24923858723603E-06   1.33547154532238E-13   0.00000000000000E+00   7.24923858723601E-10
      0.00000000000000E+00   0.00000000000000E+00  -7.24923858700846E-06  -2.27468333966560E-16  -7.24923858723593E-06
     -1.35630387464716E-13
      5.00000000000000E-02
      5.00000000000000E-01   4.99999999269918E-01   0.00000000000000E+00   0.00000000000000E+00   7.30083701535323E-06
     -1.13093540877872E-18   7.30083701535210E-06   1.41751474400282E-13   0.00000000000000E+00   7.30083701535208E-10
      0.00000000000000E+00   0.00000000000000E+00  -7.30083701515118E-06  -2.00870827176411E-16  -7.30083701535205E-06
     -1.43834705719952E-13
      6.00000000000000E-02
      6.00000000000000E-01   5.99999999264864E-01   0.00000000000000E+00   0.00000000000000E+00   7.35133851948313E-06
     -2.02399693304462E-18   7.35133851948111E-06   1.49588660893472E-13   0.00000000000000E+00   7.35133851948111E-10
      0.00000000000000E+00   0.00000000000000E+00  -7.35133851933882E-06  -1.42284969851343E-16  -7.35133851948111E-06
     -1.51671890645844E-13
      7.00000000000000E-02
      7.00000000000000E-01   6.99999999259920E-01   0.00000000000000E+00   0.00000000000000E+00   7.40086228483971E-06
     -3.17374321008985E-18   7.40086228483654E-06   1.57098574527674E-13   0.00000000000000E+00   7.40086228483654E-10
      0.00000000000000E+00   0.00000000000000E+00  -7.40086228463536E-06  -2.01214949513386E-16  -7.40086228483658E-06
     -1.59181802749135E-13
      8.00000000000000E-02
      8.00000000000000E-01   7.99999999255062E-01   0.00000000000000E+00   0.00000000000000E+00   7.44937845388372E-06
     -4.54151075542302E-18   7.44937845387918E-06   1.64314010160811E-13   0.00000000000000E+00   7.44937845387919E-10
      0.00000000000000E+00   0.00000000000000E+00  -7.44937845369145E-06  -1.87704333165510E-16  -7.44937845387916E-06
     -1.66397236883465E-13
      9.00000000000000E-02
      9.00000000000000E-01   8.99999999250314E-01   0.00000000000000E+00   0.00000000000000E+00   7.49687867558227E-06
     -5.79021822810346E-18   7.49687867557648E-06   1.71262512109194E-13   0.00000000000000E+00   7.49687867557649E-10
      0.00000000000000E+00   0.00000000000000E+00  -7.49687867540936E-06  -1.67155515424584E-16  -7.49687867557651E-06
     -1.73345737360077E-13
      1.00000000000000E-01
      1.00000000000000E+00   9.99999999245673E-01   0.00000000000000E+00   0.00000000000000E+00   7.54330269132080E-06
     -1.36194958010229E-17   7.54330269130718E-06   1.77965944010186E-13   0.00000000000000E+00   7.54330269130714E-10
      0.00000000000000E+00   0.00000000000000E+00  -7.54330269109845E-06  -2.08701757184436E-16  -7.54330269130715E-06
     -1.80049167812789E-13
      1.10000000000000E-01
      1.10000000000000E+00   1.09999999924116E+00   0.00000000000000E+00   0.00000000000000E+00   7.58845926732361E-06
     -9.76963904833383E-17   7.58845926722592E-06   1.84434362338569E-13   0.00000000000000E+00   7.58845926722601E-10
      0.00000000000000E+00   0.00000000000000E+00  -7.58845926694331E-06  -2.82595887756259E-16  -7.58845926722591E-06
     -1.86517584716165E-13
      1.20000000000000E-01
      1.20000000000000E+00   1.19999999923680E+00   0.00000000000000E+00   0.00000000000000E+00   7.63194084631412E-06
     -1.23454423682956E-21   7.63194084631412E-06   1.90643179076094E-13   0.00000000000000E+00   7.63194084631414E-10
      0.00000000000000E+00   0.00000000000000E+00  -7.63194084629872E-06  -1.53971509258652E-17  -7.63194084631412E-06
     -1.92726400055125E-13
      1.30000000000000E-01
      1.30000000000000E+00   1.29999999923270E+00   0.00000000000000E+00   0.00000000000000E+00   7.67299680174051E-06
     -8.44291410436910E-18   7.67299680173207E-06   1.96470555428017E-13   0.00000000000000E+00   7.67299680173208E-10
      0.00000000000000E+00   0.00000000000000E+00  -7.67299680192976E-06   1.97671233637924E-16  -7.67299680173208E-06
     -1.98553775043438E-13
      1.40000000000000E-01
      1.40000000000000E+00   1.39999999922889E+00   0.00000000000000E+00   0.00000000000000E+00   7.71111448241473E-06
      1.11735002171762E-17   7.71111448242590E-06   2.01752928952110E-13   0.00000000000000E+00   7.71111448242590E-10
      0.00000000000000E+00   0.00000000000000E+00  -7.71111448216795E-06  -2.58041954647797E-16  -7.71111448242599E-06
     -2.03836147250727E-13
      1.50000000000000E-01
      1.50000000000000E+00   1.49999999922525E+00   0.00000000000000E+00   0.00000000000000E+00   7.74749021065694E-06
      1.79352053912745E-17   7.74749021067488E-06   2.06772494490925E-13   0.00000000000000E+00   7.74749021067489E-10
      0.00000000000000E+00   0.00000000000000E+00  -7.74749021074255E-06   6.75423103716849E-17  -7.74749021067501E-06
     -2.08855711499762E-13
      1.60000000000000E-01
      1.60000000000000E+00   1.59999999922165E+00   0.00000000000000E+00   0.00000000000000E+00   7.78339051930246E-06
     -1.96107298015816E-19   7.78339051930226E-06   2.11724772727623E-13   0.00000000000000E+00   7.78339051930228E-10
      0.00000000000000E+00   0.00000000000000E+00  -7.78339051935124E-06   4.88927262696725E-17  -7.78339051930235E-06
     -2.13807988436759E-13
      1.70000000000000E-01
      1.70000000000000E+00   1.69999999921803E+00   0.00000000000000E+00   0.00000000000000E+00   7.81967881674431E-06
     -2.74991218457399E-21   7.81967881674430E-06   2.16636316833239E-13   0.00000000000000E+00   7.81967881674432E-10
      0.00000000000000E+00   0.00000000000000E+00  -7.81967881676776E-06   2.34226124798959E-17  -7.81967881674434E-06
     -2.18719531199754E-13
      1.80000000000000E-01
      1.80000000000000E+00   1.79999999921430E+00   0.00000000000000E+00   0.00000000000000E+00   7.85710385793253E-06
     -1.40087828098683E-21   7.85710385793252E-06   2.21515690784528E-13   0.00000000000000E+00   7.85710385793255E-10
      0.00000000000000E+00   0.00000000000000E+00  -7.85710385796666E-06   3.41849018950560E-17  -7.85710385793247E-06
     -2.23598903735355E-13
      1.90000000000000E-01
      1.90000000000000E+00   1.89999999921036E+00   0.00000000000000E+00   0.00000000000000E+00   7.89635890867960E-06
      4.80528987660436E-16   7.89635890916013E-06   2.26368088985159E-13   0.00000000000000E+00   7.89635890916070E-10
      0.00000000000000E+00   0.00000000000000E+00  -7.89635890152103E-06  -7.63909112793665E-15  -7.89635890916013E-06
     -2.28451300418884E-13
      2.00000000000000E-01
      2.00000000000000E+00   1.99999999920619E+00   0.00000000000000E+00   0.00000000000000E+00   7.93812915976238E-06
      4.96054540916467E-16   7.93812916025844E-06   2.31197030131762E-13   0.00000000000000E+00   7.93812916025878E-10
      0.00000000000000E+00   0.00000000000000E+00  -7.93812915710222E-06  -3.15626315714601E-15  -7.93812916025848E-06
     -2.33280239918679E-13
      2.10000000000000E-01
      2.10000000000000E+00   2.09999999920170E+00   0.00000000000000E+00   0.00000000000000E+00   7.98311774009416E-06
      4.96292233885704E-16   7.98311774059045E-06   2.36005005855252E-13   0.00000000000000E+00   7.98311774059058E-10
      0.00000000000000E+00   0.00000000000000E+00  -7.98311773856948E-06  -2.02090932167432E-15  -7.98311774059039E-06
     -2.38088213836311E-13
      2.20000000000000E-01
      2.20000000000000E+00   2.19999999919681E+00   0.00000000000000E+00   0.00000000000000E+00   8.03207449055076E-06
      5.01461570870662E-16   8.03207449105222E-06   2.40793856694806E-13   0.00000000000000E+00   8.03207449105224E-10
      0.00000000000000E+00   0.00000000000000E+00  -8.03207448578027E-06  -5.27192276524141E-15  -8.03207449105220E-06
     -2.42877062679166E-13
      2.30000000000000E-01
      2.30000000000000E+00   2.29999999919143E+00   0.00000000000000E+00   0.00000000000000E+00   8.08582293679880E-06
      5.15640338972975E-16   8.08582293731444E-06   2.45565005316691E-13   0.00000000000000E+00   8.08582293731451E-10
      0.00000000000000E+00   0.00000000000000E+00  -8.08582292799486E-06  -9.31958622578301E-15  -8.08582293731445E-06
     -2.47648209078005E-13
      2.40000000000000E-01
      2.40000000000000E+00   2.39999999918546E+00   0.00000000000000E+00   0.00000000000000E+00   8.14524837801694E-06
      5.13765691109988E-16   8.14524837853071E-06   2.50319600598258E-13   0.00000000000000E+00   8.14524837853083E-10
      0.00000000000000E+00   0.00000000000000E+00  -8.14524836596337E-06  -1.25673197039432E-14  -8.14524837853069E-06
     -2.52402801871094E-13
      2.50000000000000E-01
      2.50000000000000E+00   2.49999999917885E+00   0.00000000000000E+00   0.00000000000000E+00   8.21129904171945E-06
      5.09650245008673E-16   8.21129904222910E-06   2.55058602501104E-13   0.00000000000000E+00   8.21129904222933E-10
      0.00000000000000E+00   0.00000000000000E+00  -8.21129902914596E-06  -1.30831854875248E-14  -8.21129904222914E-06
     -2.57141800976873E-13
      2.60000000000000E-01
      2.60000000000000E+00   2.59999999917151E+00   0.00000000000000E+00   0.00000000000000E+00   8.28500927413828E-06
      5.21555797015508E-16   8.28500927465983E-06   2.59782828663548E-13   0.00000000000000E+00   8.28500927466008E-10
      0.00000000000000E+00   0.00000000000000E+00  -8.28500926293576E-06  -1.17241183419402E-14  -8.28500927465988E-06
     -2.61866023985003E-13
      2.70000000000000E-01
      2.70000000000000E+00   2.69999999916324E+00   0.00000000000000E+00   0.00000000000000E+00   8.36750665720568E-06
      5.37752171691306E-16   8.36750665774343E-06   2.64492978694428E-13   0.00000000000000E+00   8.36750665774369E-10
      0.00000000000000E+00   0.00000000000000E+00  -8.36750664941390E-06  -8.32953619161522E-15  -8.36750665774344E-06
     -2.66576170449227E-13
      2.80000000000000E-01
      2.80000000000000E+00   2.79999999915401E+00   0.00000000000000E+00   0.00000000000000E+00   8.46000633123541E-06
      5.45379014791984E-16   8.46000633178079E-06   2.69189646781738E-13   0.00000000000000E+00   8.46000633178099E-10
      0.00000000000000E+00   0.00000000000000E+00  -8.46000632349792E-06  -8.28283306898111E-15  -8.46000633178075E-06
     -2.71272834495391E-13
      2.90000000000000E-01
      2.90000000000000E+00   2.89999999914360E+00   0.00000000000000E+00   0.00000000000000E+00   8.56383740139821E-06
      5.51240089702762E-16   8.56383740194946E-06   2.73873328883536E-13   0.00000000000000E+00   8.56383740194952E-10
      0.00000000000000E+00   0.00000000000000E+00  -8.56383739076677E-06  -1.11827731747656E-14  -8.56383740194954E-06
     -2.75956512010197E-13
      3.00000000000000E-01
      3.00000000000000E+00   2.99999999913193E+00   0.00000000000000E+00   0.00000000000000E+00   8.68051489201497E-06
      5.67324889337894E-16   8.68051489258230E-06   2.78544428787850E-13   0.00000000000000E+00   8.68051489258231E-10
      0.00000000000000E+00   0.00000000000000E+00  -8.68051488218323E-06  -1.03991603164568E-14  -8.68051489258239E-06
     -2.80627606696896E-13
      3.10000000000000E-01
      3.10000000000000E+00   3.09999999911884E+00   0.00000000000000E+00   0.00000000000000E+00   8.81181344858345E-06
      5.93794715056610E-16   8.81181344917725E-06   2.83203266354508E-13   0.00000000000000E+00   8.81181344917718E-10
      0.00000000000000E+00   0.00000000000000E+00  -8.81181344575545E-06  -3.42191403211733E-15  -8.81181344917737E-06
     -2.85286438312364E-13
      3.20000000000000E-01
      3.20000000000000E+00   3.19999999910401E+00   0.00000000000000E+00   0.00000000000000E+00   8.95981254962569E-06
      6.20632338289740E-16   8.95981255024632E-06   2.87850089132782E-13   0.00000000000000E+00   8.95981255024625E-10
      0.00000000000000E+00   0.00000000000000E+00  -8.95981255252845E-06   2.28203715010330E-15  -8.95981255024641E-06
     -2.89933254280539E-13
      3.30000000000000E-01
      3.30000000000000E+00   3.29999999908731E+00   0.00000000000000E+00   0.00000000000000E+00   9.12693206296691E-06
      6.39713647890547E-16   9.12693206360663E-06   2.92485086207484E-13   0.00000000000000E+00   9.12693206360653E-10
      0.00000000000000E+00   0.00000000000000E+00  -9.12693206663837E-06   3.03178085870057E-15  -9.12693206360659E-06
     -2.94568243533907E-13
      3.40000000000000E-01
      3.40000000000000E+00   3.39999999906840E+00   0.00000000000000E+00   0.00000000000000E+00   9.31598361289920E-06
      6.50112257201010E-16   9.31598361354931E-06   2.97108402302210E-13   0.00000000000000E+00   9.31598361354920E-10
      0.00000000000000E+00   0.00000000000000E+00  -9.31598361664422E-06   3.09486809328314E-15  -9.31598361354935E-06
     -2.99191550610525E-13
      3.50000000000000E-01
      3.50000000000000E+00   3.49999999904699E+00   0.00000000000000E+00   0.00000000000000E+00   9.53024503341056E-06
      6.55825632340987E-16   9.53024503406639E-06   3.01720150346359E-13   0.00000000000000E+00   9.53024503406634E-10
      0.00000000000000E+00   0.00000000000000E+00  -9.53024503790526E-06   3.83881312644392E-15  -9.53024503406645E-06
     -3.03803288212467E-13
      3.60000000000000E-01
      3.60000000000000E+00   3.59999999902263E+00   0.00000000000000E+00   0.00000000000000E+00   9.77355628422115E-06
      6.62634388987803E-16   9.77355628488379E-06   3.06320421032484E-13   0.00000000000000E+00   9.77355628488369E-10
      0.00000000000000E+00   0.00000000000000E+00  -9.77355628937728E-06   4.49361000274797E-15  -9.77355628488367E-06
     -3.08403546751636E-13
      3.70000000000000E-01
      3.70000000000000E+00   3.69999999899495E+00   0.00000000000000E+00   0.00000000000000E+00   1.00504357589207E-05
      6.74714712171171E-16   1.00504357595954E-05   3.10909288272099E-13   0.00000000000000E+00   1.00504357595953E-09
      0.00000000000000E+00   0.00000000000000E+00  -1.00504357652698E-05   5.67438907443489E-15  -1.00504357595954E-05
     -3.12992399790522E-13
      3.80000000000000E-01
      3.80000000000000E+00   3.79999999896338E+00   0.00000000000000E+00   0.00000000000000E+00   1.03662218623812E-05
      6.92041434146091E-16   1.03662218630732E-05   3.15486809901756E-13   0.00000000000000E+00   1.03662218630731E-09
      0.00000000000000E+00   0.00000000000000E+00  -1.03662218694335E-05   6.36018675139848E-15  -1.03662218630733E-05
     -3.17569904728302E-13
      3.90000000000000E-01
      3.90000000000000E+00   3.89999999892729E+00   0.00000000000000E+00   0.00000000000000E+00   1.07272573602709E-05
      7.13987145058185E-16   1.07272573609848E-05   3.20053023358587E-13   0.00000000000000E+00   1.07272573609847E-09
      0.00000000000000E+00   0.00000000000000E+00  -1.07272573676387E-05   6.65356528837732E-15  -1.07272573609851E-05
     -3.22136098449208E-13
      4.00000000000000E-01
      4.00000000000000E+00   3.99999999888588E+00   0.00000000000000E+00   0.00000000000000E+00   1.11411410845224E-05
      7.34050035057212E-16   1.11411410852565E-05   3.24607936520204E-13   0.00000000000000E+00   1.11411410852562E-09
      0.00000000000000E+00   0.00000000000000E+00  -1.11411410909663E-05   5.70955701105363E-15  -1.11411410852567E-05
     -3.26690988124439E-13
      4.10000000000000E-01
      4.10000000000000E+00   4.09999999883832E+00   0.00000000000000E+00   0.00000000000000E+00   1.16170527580001E-05
      7.54036060366288E-16   1.16170527587541E-05   3.29151514864602E-13   0.00000000000000E+00   1.16170527587539E-09
      0.00000000000000E+00   0.00000000000000E+00  -1.16170527627889E-05   4.03476773541652E-15  -1.16170527587542E-05
     -3.31234538319762E-13
      4.20000000000000E-01
      4.20000000000000E+00   4.19999999878337E+00   0.00000000000000E+00   0.00000000000000E+00   1.21661437289117E-05
      7.72647995276171E-16   1.21661437296843E-05   3.33683666549293E-13   0.00000000000000E+00   1.21661437296841E-09
      0.00000000000000E+00   0.00000000000000E+00  -1.21661437325917E-05   2.90745108491996E-15  -1.21661437296843E-05
     -3.35766656003270E-13
      4.30000000000000E-01
      4.30000000000000E+00   4.29999999871982E+00   0.00000000000000E+00   0.00000000000000E+00   1.28019687406935E-05
      7.86055003656148E-16   1.28019687414795E-05   3.38204227136090E-13   0.00000000000000E+00   1.28019687414792E-09
      0.00000000000000E+00   0.00000000000000E+00  -1.28019687486773E-05   7.19762411615553E-15  -1.28019687414797E-05
     -3.40287175173685E-13
      4.40000000000000E-01
      4.40000000000000E+00   4.39999999864588E+00   0.00000000000000E+00   0.00000000000000E+00   1.35410171800000E-05
      7.92835482975412E-16   1.35410171807928E-05   3.42712943518913E-13   0.00000000000000E+00   1.35410171807921E-09
      0.00000000000000E+00   0.00000000000000E+00  -1.35410171965249E-05   1.57320821045640E-14  -1.35410171807928E-05
     -3.44795840652772E-13
      4.50000000000000E-01
      4.50000000000000E+00   4.49999999855963E+00   0.00000000000000E+00   0.00000000000000E+00   1.44034471318264E-05
      7.95797067652225E-16   1.44034471326222E-05   3.47209455662342E-13   0.00000000000000E+00   1.44034471326210E-09
      0.00000000000000E+00   0.00000000000000E+00  -1.44034471559401E-05   2.33181347432399E-14  -1.44034471326220E-05
     -3.49292289628477E-13
      4.60000000000000E-01
      4.60000000000000E+00   4.59999999845857E+00   0.00000000000000E+00   0.00000000000000E+00   1.54140954743916E-05
      7.96935436248613E-16   1.54140954751885E-05   3.51693274950321E-13   0.00000000000000E+00   1.54140954751869E-09
      0.00000000000000E+00   0.00000000000000E+00  -1.54140955037995E-05   2.86109373856094E-14  -1.54140954751886E-05
     -3.53776029719268E-13
      4.70000000000000E-01
      4.70000000000000E+00   4.69999999833960E+00   0.00000000000000E+00   0.00000000000000E+00   1.66038130024456E-05
      7.93476045640328E-16   1.66038130032391E-05   3.56163757670892E-13   0.00000000000000E+00   1.66038130032372E-09
      0.00000000000000E+00   0.00000000000000E+00  -1.66038130183841E-05   1.51450440222524E-14  -1.66038130032391E-05
     -3.58246412042019E-13
      4.80000000000000E-01
      4.80000000000000E+00   4.79999999819890E+00   0.00000000000000E+00   0.00000000000000E+00   1.80112236771330E-05
      7.77897867641009E-16   1.80112236779109E-05   3.60620070645270E-13   0.00000000000000E+00   1.80112236779087E-09
      0.00000000000000E+00   0.00000000000000E+00  -1.80112237158286E-05   3.79178655591353E-14  -1.80112236779108E-05
     -3.62702596222322E-13
      4.90000000000000E-01
      4.90000000000000E+00   4.89999999803148E+00   0.00000000000000E+00   0.00000000000000E+00   1.96850935303253E-05
      7.38527856615136E-16   1.96850935310638E-05   3.65061144012611E-13   0.00000000000000E+00   1.96850935310614E-09
      0.00000000000000E+00   0.00000000000000E+00  -1.96850935718678E-05   4.08037199228796E-14  -1.96850935310641E-05
     -3.67143502245035E-13
      5.00000000000000E-01
      5.00000000000000E+00   4.99999999783122E+00   0.00000000000000E+00   0.00000000000000E+00   2.16876109897899E-05
      6.58063621262113E-16   2.16876109904479E-05   3.69485603622575E-13   0.00000000000000E+00   2.16876109904455E-09
      0.00000000000000E+00   0.00000000000000E+00  -2.16876110098119E-05   1.93633283842256E-14  -2.16876109904486E-05
     -3.71567741407816E-13
      5.10000000000000E-01
      5.10000000000000E+00   5.09999999759012E+00   0.00000000000000E+00   0.00000000000000E+00   2.40990756946208E-05
      5.09772184064409E-16   2.40990756951306E-05   3.73891671358266E-13   0.00000000000000E+00   2.40990756951283E-09
      0.00000000000000E+00   0.00000000000000E+00  -2.40990757039791E-05   8.84689053871350E-15  -2.40990756951323E-05
     -3.75973514374971E-13
      5.20000000000000E-01
      5.20000000000000E+00   5.19999999729753E+00   0.00000000000000E+00   0.00000000000000E+00   2.70248734998130E-05
      2.49864748062807E-16   2.70248735000629E-05   3.78277013882362E-13   0.00000000000000E+00   2.70248735000621E-09
      0.00000000000000E+00   0.00000000000000E+00  -2.70248733700819E-05  -1.29984849218610E-13  -2.70248735000667E-05
     -3.80358456240218E-13
      5.30000000000000E-01
      5.30000000000000E+00   5.29999999693934E+00   0.00000000000000E+00   0.00000000000000E+00   3.06064304996691E-05
      1.85473260147308E-19   3.06064304996693E-05   3.82638503634895E-13   0.00000000000000E+00   3.06064304996693E-09
      0.00000000000000E+00   0.00000000000000E+00  -3.06064304997589E-05   8.97341195213430E-17  -3.06064304996692E-05
     -3.84719391312683E-13
      5.40000000000000E-01
      5.40000000000000E+00   5.39999999649605E+00   0.00000000000000E+00   0.00000000000000E+00   3.50397788690145E-05
      2.35583443122955E-18   3.50397788690168E-05   3.86971816079551E-13   0.00000000000000E+00   3.50397788690170E-09
      0.00000000000000E+00   0.00000000000000E+00  -3.50397788694894E-05   4.72444498063285E-16  -3.50397788690170E-05
     -3.89051919313887E-13
      5.50000000000000E-01
      5.50000000000000E+00   5.49999999593890E+00   0.00000000000000E+00   0.00000000000000E+00   4.06106834675841E-05
      8.91044561966810E-18   4.06106834675930E-05   3.91270676926769E-13   0.00000000000000E+00   4.06106834675931E-09
      0.00000000000000E+00   0.00000000000000E+00  -4.06106834686426E-05   1.04953783337761E-15  -4.06106834675931E-05
     -3.93349641302600E-13
      5.60000000000000E-01
      5.60000000000000E+00   5.59999999522271E+00   0.00000000000000E+00   0.00000000000000E+00   4.77726254455886E-05
      6.09512570449373E-17   4.77726254456496E-05   3.95525207649580E-13   0.00000000000000E+00   4.77726254456497E-09
      0.00000000000000E+00   0.00000000000000E+00  -4.77726254544640E-05   8.81353869910480E-15  -4.77726254456504E-05
     -3.97602458457648E-13
      5.70000000000000E-01
      5.70000000000000E+00   5.69999999426345E+00   0.00000000000000E+00   0.00000000000000E+00   5.73657020624160E-05
     -4.43278067496717E-19   5.73657020624156E-05   3.99717265732179E-13   0.00000000000000E+00   5.73657020624156E-09
      0.00000000000000E+00   0.00000000000000E+00  -5.73657020621451E-05  -2.70426395751355E-16  -5.73657020624155E-05
     -4.01791784185943E-13
      5.80000000000000E-01
      5.80000000000000E+00   5.79999999285014E+00   0.00000000000000E+00   0.00000000000000E+00   7.14990676167087E-05
     -1.20513810596847E-17   7.14990676166966E-05   4.03801055262442E-13   0.00000000000000E+00   7.14990676166966E-09
      0.00000000000000E+00   0.00000000000000E+00  -7.14990676143182E-05  -2.37755910649785E-15  -7.14990676166958E-05
     -4.05870627172812E-13
      5.90000000000000E-01
      5.90000000000000E+00   5.89999999001620E+00   0.00000000000000E+00   0.00000000000000E+00   9.98382191310024E-05
     -3.35108230344139E-18   9.98382191309990E-05   4.07557382348022E-13   0.00000000000000E+00   9.98382191309993E-09
      0.00000000000000E+00   0.00000000000000E+00  -9.98382191302019E-05  -7.97095520631504E-16  -9.98382191309990E-05
     -4.09613310648137E-13
      5.95000000000000E-01
      5.95000000000000E+00   5.94999998662056E+00   0.00000000000000E+00   0.00000000000000E+00   1.33794116302183E-04
     -2.65613261844164E-17   1.33794116302157E-04   4.09007410860211E-13   0.00000000000000E+00   1.33794116302157E-08
      0.00000000000000E+00   0.00000000000000E+00  -1.33794116294052E-04  -8.10413576781874E-15  -1.33794116302156E-04
     -4.11040747725295E-13
      5.99333333333334E-01
      5.99333333333334E+00   5.99333331393848E+00   0.00000000000000E+00   0.00000000000000E+00   1.93948692287436E-04
      5.49673167922149E-16   1.93948692287985E-04   4.09859524829600E-13   0.00000000000000E+00   1.93948692287990E-08
      0.00000000000000E+00   0.00000000000000E+00  -1.93948692461637E-04   1.73648887586677E-13  -1.93948692287988E-04
     -4.11849707158380E-13
      6.07133333333334E-01
      6.07133333333334E+00   6.07133328938799E+00   0.00000000000000E+00   0.00000000000000E+00   4.39453600115649E-04
     -3.67943002697261E-18   4.39453600115645E-04   4.10435858329568E-13   0.00000000000000E+00   4.39453600115646E-08
      0.00000000000000E+00   0.00000000000000E+00  -4.39453600114129E-04  -1.51829101245136E-15  -4.39453600115647E-04
     -4.12237997777790E-13
      6.17133333333334E-01
      6.17133333333334E+00   6.17133325082870E+00   0.00000000000000E+00   0.00000000000000E+00   8.25046734712639E-04
      3.11284702041444E-17   8.25046734712671E-04   4.10746581855989E-13   0.00000000000000E+00   8.25046734712672E-08
      0.00000000000000E+00   0.00000000000000E+00  -8.25046734748014E-04   3.53413854794426E-14  -8.25046734712673E-04
     -4.12072450249608E-13
      6.27133333333334E-01
      6.27133333333334E+00   6.27133321147384E+00   0.00000000000000E+00   0.00000000000000E+00   1.21859482094353E-03
     -1.30003744152681E-15   1.21859482094223E-03   4.11010214005588E-13   0.00000000000000E+00   1.21859482094224E-07
      0.00000000000000E+00   0.00000000000000E+00  -1.21859482005936E-03  -8.83091730379771E-13  -1.21859482094245E-03
     -4.11937978254827E-13
      6.37133333333334E-01
      6.37133333333334E+00   6.37133317191167E+00   0.00000000000000E+00   0.00000000000000E+00   1.61421644367549E-03
     -2.82072123522645E-17   1.61421644367547E-03   4.11260096310146E-13   0.00000000000000E+00   1.61421644367547E-07
      0.00000000000000E+00   0.00000000000000E+00  -1.61421644364038E-03  -3.51006841256347E-14  -1.61421644367548E-03
     -4.12045614585106E-13
      6.47133333333334E-01
      6.47133333333334E+00   6.47133313225220E+00   0.00000000000000E+00   0.00000000000000E+00   2.01081124637906E-03
      2.92540540207186E-19   2.01081124637906E-03   4.11502570589517E-13   0.00000000000000E+00   2.01081124637907E-07
      0.00000000000000E+00   0.00000000000000E+00  -2.01081124637968E-03   6.29489962913865E-16  -2.01081124637905E-03
     -4.12229456132061E-13
      6.57133333333334E-01
      6.57133333333334E+00   6.57133309252824E+00   0.00000000000000E+00   0.00000000000000E+00   2.40805083219490E-03
      6.69138097638365E-20   2.40805083219490E-03   4.11739927485196E-13   0.00000000000000E+00   2.40805083219490E-07
      0.00000000000000E+00   0.00000000000000E+00  -2.40805083219517E-03   2.73083776541576E-16  -2.40805083219490E-03
     -4.12428122423834E-13
      6.67133333333334E-01
      6.67133333333334E+00   6.67133305275238E+00   0.00000000000000E+00   0.00000000000000E+00   2.80580934200824E-03
     -1.91838021546073E-18   2.80580934200824E-03   4.11973248747702E-13   0.00000000000000E+00   2.80580934200823E-07
      0.00000000000000E+00   0.00000000000000E+00  -2.80580934199883E-03  -9.41364071783348E-15  -2.80580934200824E-03
     -4.12631891765216E-13
      6.77133333333334E-01
      6.77133333333334E+00   6.77133301293079E+00   0.00000000000000E+00   0.00000000000000E+00   3.20402596864188E-03
      5.80214621522457E-18   3.20402596864188E-03   4.12203158636945E-13   0.00000000000000E+00   3.20402596864189E-07
      0.00000000000000E+00   0.00000000000000E+00  -3.20402596869473E-03   5.28327643758702E-14  -3.20402596864190E-03
     -4.12837918194020E-13
      6.87133333333334E-01
      6.87133333333334E+00   6.87133297306660E+00   0.00000000000000E+00   0.00000000000000E+00   3.60266706470103E-03
      1.09550625737322E-17   3.60266706470104E-03   4.12430062335786E-13   0.00000000000000E+00   3.60266706470104E-07
      0.00000000000000E+00   0.00000000000000E+00  -3.60266706481971E-03   1.18642482773049E-13  -3.60266706470106E-03
     -4.13044853572473E-13
      6.97133333333334E-01
      6.97133333333334E+00   6.97133293316207E+00   0.00000000000000E+00   0.00000000000000E+00   4.00171232184860E-03
      1.72565738320704E-17   4.00171232184862E-03   4.12654242020926E-13   0.00000000000000E+00   4.00171232184862E-07
      0.00000000000000E+00   0.00000000000000E+00  -4.00171232204602E-03   1.97369589451775E-13  -4.00171232184865E-03
     -4.13251936052041E-13
      7.07133333333334E-01