DF-ISE text

Info {
  version   = 1.0
  type      = xyplot
  datasets  = [
    "time"
    "ntype OuterVoltage" "ntype InnerVoltage" "ntype QuasiFermiPotential" "ntype DisplacementCurrent" "ntype eCurrent"
    "ntype hCurrent" "ntype TotalCurrent" "ntype Charge" "ptype OuterVoltage" "ptype InnerVoltage"
    "ptype QuasiFermiPotential" "ptype DisplacementCurrent" "ptype eCurrent" "ptype hCurrent" "ptype TotalCurrent"
    "ptype Charge" ]
  functions = [
    Time
    OuterVoltage InnerVoltage QuasiFermiPotential DisplacementCurrent eCurrent
    hCurrent TotalCurrent Charge OuterVoltage InnerVoltage
    QuasiFermiPotential DisplacementCurrent eCurrent hCurrent TotalCurrent
    Charge ]
}

Data {
      0.00000000000000E+00
      0.00000000000000E+00   0.00000000000000E+00   0.00000000000000E+00   0.00000000000000E+00   1.88125265056491E-06
     -1.88125265056513E-06  -2.14290093251956E-19   3.99145422400016E-14   0.00000000000000E+00   0.00000000000000E+00
      0.00000000000000E+00   0.00000000000000E+00   8.00469576448273E-06  -8.00469576448255E-06   1.82492208446827E-19
     -4.19979509963833E-14
      0.00000000000000E+00
      0.00000000000000E+00   0.00000000000000E+00   0.00000000000000E+00   0.00000000000000E+00   7.49373765457381E-06
     -1.86965524506298E-06   5.62408240951083E-06   3.99104428367557E-14   0.00000000000000E+00   0.00000000000000E+00
      0.00000000000000E+00   0.00000000000000E+00   1.29350507146666E-06  -6.91758748581541E-06  -5.62408241434874E-06
     -4.19938516147278E-14
      0.00000000000000E+00
      0.00000000000000E+00   0.00000000000000E+00   0.00000000000000E+00   0.00000000000000E+00   7.40572439021944E-06
      1.93436232488538E-20   7.40572439021946E-06   3.96948657481885E-14   0.00000000000000E+00   0.00000000000000E+00
      0.00000000000000E+00   0.00000000000000E+00  -7.40572439018647E-06  -3.30986333438015E-17  -7.40572439021957E-06
     -4.17780965561784E-14
      1.00000000000000E-03
      1.50000000000000E-02   1.50000000000000E-02   0.00000000000000E+00   0.00000000000000E+00   7.41041977736644E-06
      6.49494047023392E-18   7.41041977737294E-06   4.06172283162682E-14   0.00000000000000E+00   0.00000000000000E+00
      0.00000000000000E+00   0.00000000000000E+00  -7.41041977742034E-06   4.74246862122792E-17  -7.41041977737292E-06
     -4.27004589409929E-14
      2.00000000000000E-03
      3.00000000000000E-02   3.00000000000000E-02   0.00000000000000E+00   0.00000000000000E+00   7.41476540707035E-06
     -3.76531347840875E-18   7.41476540706658E-06   4.15374482082953E-14   0.00000000000000E+00   0.00000000000000E+00
      0.00000000000000E+00   0.00000000000000E+00  -7.41476540702633E-06  -4.02354637110221E-17  -7.41476540706656E-06
     -4.36206786609876E-14
      3.00000000000000E-03
      4.50000000000000E-02   4.50000000000000E-02   0.00000000000000E+00   0.00000000000000E+00   7.41881742399377E-06
     -1.53569607411827E-18   7.41881742399224E-06   4.24554830320884E-14   0.00000000000000E+00   0.00000000000000E+00
      0.00000000000000E+00   0.00000000000000E+00  -7.41881742400486E-06   1.25478786191824E-17  -7.41881742399232E-06
     -4.45387133221963E-14
      4.00000000000000E-03
      6.00000000000000E-02   6.00000000000000E-02   0.00000000000000E+00   0.00000000000000E+00   7.42261653060094E-06
     -4.37792824358713E-19   7.42261653060050E-06   4.33713060959978E-14   0.00000000000000E+00   0.00000000000000E+00
      0.00000000000000E+00   0.00000000000000E+00  -7.42261653054257E-06  -5.79214931329515E-17  -7.42261653060049E-06
     -4.54545362316697E-14
      5.00000000000000E-03
      7.50000000000000E-02   7.50000000000000E-02   0.00000000000000E+00   0.00000000000000E+00   7.42619337887345E-06
      2.11775910970871E-19   7.42619337887366E-06   4.42849037872187E-14   0.00000000000000E+00   0.00000000000000E+00
      0.00000000000000E+00   0.00000000000000E+00  -7.42619337890734E-06   3.36093822704193E-17  -7.42619337887373E-06
     -4.63681337756287E-14
      6.00000000000000E-03
      9.00000000000000E-02   9.00000000000000E-02   0.00000000000000E+00   0.00000000000000E+00   7.42957192512256E-06
      8.05999153289516E-20   7.42957192512264E-06   4.51962733246435E-14   0.00000000000000E+00   0.00000000000000E+00
      0.00000000000000E+00   0.00000000000000E+00  -7.42957192511077E-06  -1.19527052256080E-17  -7.42957192512272E-06
     -4.72795031722132E-14
      7.00000000000000E-03
      1.05000000000000E-01   1.05000000000000E-01   0.00000000000000E+00   0.00000000000000E+00   7.43277154054834E-06
      3.30996647188987E-19   7.43277154054867E-06   4.61054208338178E-14   0.00000000000000E+00   0.00000000000000E+00
      0.00000000000000E+00   0.00000000000000E+00  -7.43277154050034E-06  -4.82942295780149E-17  -7.43277154054864E-06
     -4.81886505463516E-14
      8.00000000000000E-03
      1.20000000000000E-01   1.20000000000000E-01   0.00000000000000E+00   0.00000000000000E+00   7.43580835594690E-06
     -6.72732101092477E-20   7.43580835594683E-06   4.70123597008733E-14   0.00000000000000E+00   0.00000000000000E+00
      0.00000000000000E+00   0.00000000000000E+00  -7.43580835592413E-06  -2.27389476464052E-17  -7.43580835594687E-06
     -4.90955892836624E-14
      9.00000000000000E-03
      1.35000000000000E-01   1.35000000000000E-01   0.00000000000000E+00   0.00000000000000E+00   7.43869613131177E-06
      1.61978576410094E-20   7.43869613131178E-06   4.79171091688421E-14   0.00000000000000E+00   0.00000000000000E+00
      0.00000000000000E+00   0.00000000000000E+00  -7.43869613129226E-06  -1.94590505916262E-17  -7.43869613131172E-06
     -5.00003386267438E-14
      1.00000000000000E-02
      1.50000000000000E-01   1.50000000000000E-01   0.00000000000000E+00   0.00000000000000E+00   7.44144682850688E-06
     -2.22638118104498E-19   7.44144682850666E-06   4.88196931446671E-14   0.00000000000000E+00   0.00000000000000E+00
      0.00000000000000E+00   0.00000000000000E+00  -7.44144682852092E-06   1.42572762237960E-17  -7.44144682850666E-06
     -5.09029224821622E-14
      1.10000000000000E-02
      1.65000000000000E-01   1.65000000000000E-01   0.00000000000000E+00   0.00000000000000E+00   7.44407099730486E-06
      1.25976436625211E-20   7.44407099730488E-06   4.97201391891544E-14   0.00000000000000E+00   0.00000000000000E+00
      0.00000000000000E+00   0.00000000000000E+00  -7.44407099730581E-06   1.07264484507703E-18  -7.44407099730474E-06
     -5.18033684103885E-14
      1.20000000000000E-02
      1.80000000000000E-01   1.80000000000000E-01   0.00000000000000E+00   0.00000000000000E+00   7.44657804351173E-06
     -2.31190010170252E-19   7.44657804351150E-06   5.06184776654198E-14   0.00000000000000E+00   0.00000000000000E+00
      0.00000000000000E+00   0.00000000000000E+00  -7.44657804349599E-06  -1.54747178141128E-17  -7.44657804351146E-06
     -5.27017067742416E-14
      1.30000000000000E-02
      1.95000000000000E-01   1.95000000000000E-01   0.00000000000000E+00   0.00000000000000E+00   7.44897642179059E-06
     -1.27183438536547E-19   7.44897642179047E-06   5.15147410242934E-14   0.00000000000000E+00   0.00000000000000E+00
      0.00000000000000E+00   0.00000000000000E+00  -7.44897642178783E-06  -2.62894243290241E-18  -7.44897642179046E-06
     -5.35979700242861E-14
      1.40000000000000E-02
      2.10000000000000E-01   2.10000000000000E-01   0.00000000000000E+00   0.00000000000000E+00   7.45127377920661E-06
      1.05939124805838E-19   7.45127377920672E-06   5.24089632077221E-14   0.00000000000000E+00   0.00000000000000E+00
      0.00000000000000E+00   0.00000000000000E+00  -7.45127377918529E-06  -2.14122988563612E-17  -7.45127377920670E-06
     -5.44921921022171E-14
      1.50000000000000E-02
      2.25000000000000E-01   2.25000000000000E-01   0.00000000000000E+00   0.00000000000000E+00   7.45347706530680E-06
      3.08225354530178E-19   7.45347706530711E-06   5.33011791535147E-14   0.00000000000000E+00   0.00000000000000E+00
      0.00000000000000E+00   0.00000000000000E+00  -7.45347706531718E-06   1.00016774653849E-17  -7.45347706530718E-06
     -5.53844079456353E-14
      1.60000000000000E-02
      2.40000000000000E-01   2.40000000000000E-01   0.00000000000000E+00   0.00000000000000E+00   7.45559261877507E-06
      3.82777569230899E-19   7.45559261877545E-06   5.41914243868213E-14   0.00000000000000E+00   0.00000000000000E+00
      0.00000000000000E+00   0.00000000000000E+00  -7.45559261879090E-06   1.53882508883252E-17  -7.45559261877552E-06
     -5.62746530794801E-14
      1.70000000000000E-02
      2.55000000000000E-01   2.55000000000000E-01   0.00000000000000E+00   0.00000000000000E+00   7.45762623762641E-06
     -1.07965915934806E-20   7.45762623762639E-06   5.50797346855584E-14   0.00000000000000E+00   0.00000000000000E+00
      0.00000000000000E+00   0.00000000000000E+00  -7.45762623762135E-06  -5.02225736715971E-18  -7.45762623762637E-06
     -5.71629632814924E-14
      1.80000000000000E-02
      2.70000000000000E-01   2.70000000000000E-01   0.00000000000000E+00   0.00000000000000E+00   7.45958323802223E-06
      2.91937849319915E-20   7.45958323802226E-06   5.59661458086319E-14   0.00000000000000E+00   0.00000000000000E+00
      0.00000000000000E+00   0.00000000000000E+00  -7.45958323798153E-06  -4.07610131399531E-17  -7.45958323802229E-06
     -5.80493743104075E-14
      1.90000000000000E-02
      2.85000000000000E-01   2.85000000000000E-01   0.00000000000000E+00   0.00000000000000E+00   7.46146850515998E-06
      1.22055165538763E-19   7.46146850516011E-06   5.68506932772842E-14   0.00000000000000E+00   0.00000000000000E+00
      0.00000000000000E+00   0.00000000000000E+00  -7.46146850518435E-06   2.43484147795692E-17  -7.46146850516000E-06
     -5.89339216873111E-14
      2.00000000000000E-02
      3.00000000000000E-01   3.00000000000000E-01   0.00000000000000E+00   0.00000000000000E+00   7.46328653811984E-06
      2.06316319998767E-19   7.46328653812004E-06   5.77334122012158E-14   0.00000000000000E+00   0.00000000000000E+00
      0.00000000000000E+00   0.00000000000000E+00  -7.46328653804697E-06  -7.30681713396802E-17  -7.46328653812004E-06
     -5.98166405217597E-14
      2.10000000000000E-02
      3.15000000000000E-01   3.15000000000000E-01   0.00000000000000E+00   0.00000000000000E+00   7.46504148931623E-06
      6.96634519256115E-20   7.46504148931630E-06   5.86143371423114E-14   0.00000000000000E+00   0.00000000000000E+00
      0.00000000000000E+00   0.00000000000000E+00  -7.46504148928265E-06  -3.36911758186896E-17  -7.46504148931635E-06
     -6.06975653755057E-14
      2.20000000000000E-02
      3.30000000000000E-01   3.30000000000000E-01   0.00000000000000E+00   0.00000000000000E+00   7.46673719863606E-06
      6.02928507334207E-20   7.46673719863612E-06   5.94935020098189E-14   0.00000000000000E+00   0.00000000000000E+00
      0.00000000000000E+00   0.00000000000000E+00  -7.46673719862268E-06  -1.35003065070708E-17  -7.46673719863618E-06
     -6.15767301576831E-14
      2.30000000000000E-02
      3.45000000000000E-01   3.45000000000000E-01   0.00000000000000E+00   0.00000000000000E+00   7.46837722248168E-06
     -1.94635133715905E-20   7.46837722248166E-06   6.03709399817109E-14   0.00000000000000E+00   0.00000000000000E+00
      0.00000000000000E+00   0.00000000000000E+00  -7.46837722250440E-06   2.27324135370395E-17  -7.46837722248166E-06
     -6.24541680461419E-14
      2.40000000000000E-02
      3.60000000000000E-01   3.60000000000000E-01   0.00000000000000E+00   0.00000000000000E+00   7.46996485847091E-06
      4.16601705119398E-19   7.46996485847133E-06   6.12466834477159E-14   0.00000000000000E+00   0.00000000000000E+00
      0.00000000000000E+00   0.00000000000000E+00  -7.46996485848911E-06   1.78163647316855E-17  -7.46996485847130E-06
     -6.33299114305099E-14
      2.50000000000000E-02
      3.75000000000000E-01   3.75000000000000E-01   0.00000000000000E+00   0.00000000000000E+00   7.47150316702557E-06
      6.58945817068949E-19   7.47150316702623E-06   6.21207639701665E-14   0.00000000000000E+00   0.00000000000000E+00
      0.00000000000000E+00   0.00000000000000E+00  -7.47150316702701E-06   7.91577845212773E-19  -7.47150316702622E-06
     -6.42039918730271E-14
      2.60000000000000E-02
      3.90000000000000E-01   3.90000000000000E-01   0.00000000000000E+00   0.00000000000000E+00   7.47299499117112E-06
      9.53674622038879E-20   7.47299499117122E-06   6.29932122593907E-14   0.00000000000000E+00   0.00000000000000E+00
      0.00000000000000E+00   0.00000000000000E+00  -7.47299499117215E-06   9.06759656172899E-19  -7.47299499117124E-06
     -6.50764400839244E-14
      2.70000000000000E-02
      4.05000000000000E-01   4.05000000000000E-01   0.00000000000000E+00   0.00000000000000E+00   7.47444297548923E-06
      1.36038836228329E-19   7.47444297548936E-06   6.38640581608906E-14   0.00000000000000E+00   0.00000000000000E+00
      0.00000000000000E+00   0.00000000000000E+00  -7.47444297543570E-06  -5.36789868511130E-17  -7.47444297548938E-06
     -6.59472859086273E-14
      2.80000000000000E-02
      4.20000000000000E-01   4.20000000000000E-01   0.00000000000000E+00   0.00000000000000E+00   7.47584958449497E-06
      4.33438436702738E-19   7.47584958449541E-06   6.47333306520042E-14   0.00000000000000E+00   0.00000000000000E+00
      0.00000000000000E+00   0.00000000000000E+00  -7.47584958452709E-06   3.17112940218241E-17  -7.47584958449538E-06
     -6.68165583243914E-14
      2.90000000000000E-02
      4.35000000000000E-01   4.35000000000000E-01   0.00000000000000E+00   0.00000000000000E+00   7.47721712006059E-06
      2.22553330945625E-19   7.47721712006081E-06   6.56010578461363E-14   0.00000000000000E+00   0.00000000000000E+00
      0.00000000000000E+00   0.00000000000000E+00  -7.47721712008391E-06   2.31067383222717E-17  -7.47721712006080E-06
     -6.76842854445456E-14
      3.00000000000000E-02
      4.50000000000000E-01   4.50000000000000E-01   0.00000000000000E+00   0.00000000000000E+00   7.47854773714389E-06
      3.63674806318714E-19   7.47854773714426E-06   6.64672670029757E-14   0.00000000000000E+00   0.00000000000000E+00
      0.00000000000000E+00   0.00000000000000E+00  -7.47854773712001E-06  -2.43213202566112E-17  -7.47854773714433E-06
     -6.85504945287178E-14
      3.10000000000000E-02
      4.65000000000000E-01   4.65000000000000E-01   0.00000000000000E+00   0.00000000000000E+00   7.47984345713217E-06
      5.14700987980330E-19   7.47984345713269E-06   6.73319845433809E-14   0.00000000000000E+00   0.00000000000000E+00
      0.00000000000000E+00   0.00000000000000E+00  -7.47984345711756E-06  -1.51407759640448E-17  -7.47984345713270E-06
     -6.94152119977011E-14
      3.20000000000000E-02
      4.80000000000000E-01   4.80000000000000E-01   0.00000000000000E+00   0.00000000000000E+00   7.48110617851174E-06
      5.55506293313053E-19   7.48110617851229E-06   6.81952360678382E-14   0.00000000000000E+00   0.00000000000000E+00
      0.00000000000000E+00   0.00000000000000E+00  -7.48110617847021E-06  -4.20669723177179E-17  -7.48110617851228E-06
     -7.02784634519149E-14
      3.30000000000000E-02
      4.95000000000000E-01   4.95000000000000E-01   0.00000000000000E+00   0.00000000000000E+00   7.48233768513028E-06
      5.91649655021790E-19   7.48233768513087E-06   6.90570463775717E-14   0.00000000000000E+00   0.00000000000000E+00
      0.00000000000000E+00   0.00000000000000E+00  -7.48233768512843E-06  -2.48910770140854E-18  -7.48233768513092E-06
     -7.11402736925372E-14
      3.40000000000000E-02
      5.10000000000000E-01   5.10000000000000E-01   0.00000000000000E+00   0.00000000000000E+00   7.48353965280508E-06
      9.55869907394396E-19   7.48353965280604E-06   6.99174394975343E-14   0.00000000000000E+00   0.00000000000000E+00
      0.00000000000000E+00   0.00000000000000E+00  -7.48353965282365E-06   1.76582207711107E-17  -7.48353965280600E-06
     -7.20006667444615E-14
      3.50000000000000E-02
      5.25000000000000E-01   5.25000000000000E-01   0.00000000000000E+00   0.00000000000000E+00   7.48471365527329E-06
      1.01393371992243E-18   7.48471365527431E-06   7.07764387006504E-14   0.00000000000000E+00   0.00000000000000E+00
      0.00000000000000E+00   0.00000000000000E+00  -7.48471365529105E-06   1.66968519134345E-17  -7.48471365527435E-06
     -7.28596658805638E-14
      3.60000000000000E-02
      5.40000000000000E-01   5.40000000000000E-01   0.00000000000000E+00   0.00000000000000E+00   7.48586117042136E-06
      8.32200815586270E-19   7.48586117042220E-06   7.16340665327784E-14   0.00000000000000E+00   0.00000000000000E+00
      0.00000000000000E+00   0.00000000000000E+00  -7.48586117044944E-06   2.71843378464876E-17  -7.48586117042226E-06
     -7.37172936466600E-14
      3.70000000000000E-02
      5.55000000000000E-01   5.55000000000000E-01   0.00000000000000E+00   0.00000000000000E+00   7.48698358739587E-06
      9.30068688908496E-19   7.48698358739680E-06   7.24903448379937E-14   0.00000000000000E+00   0.00000000000000E+00
      0.00000000000000E+00   0.00000000000000E+00  -7.48698358739356E-06  -3.22797832663947E-18  -7.48698358739679E-06
     -7.45735718867782E-14
      3.80000000000000E-02
      5.70000000000000E-01   5.70000000000000E-01   0.00000000000000E+00   0.00000000000000E+00   7.48808221472184E-06
      7.87567667055538E-19   7.48808221472262E-06   7.33452947838660E-14   0.00000000000000E+00   0.00000000000000E+00
      0.00000000000000E+00   0.00000000000000E+00  -7.48808221475344E-06   3.07626231317598E-17  -7.48808221472268E-06
     -7.54285217684520E-14
      3.90000000000000E-02
      5.85000000000000E-01   5.85000000000000E-01   0.00000000000000E+00   0.00000000000000E+00   7.48915828906872E-06
      5.22225983341652E-19   7.48915828906924E-06   7.41989368865012E-14   0.00000000000000E+00   0.00000000000000E+00
      0.00000000000000E+00   0.00000000000000E+00  -7.48915828908348E-06   1.42234265694229E-17  -7.48915828906926E-06
     -7.62821638077418E-14
      4.00000000000000E-02
      6.00000000000000E-01   6.00000000000000E-01   0.00000000000000E+00   0.00000000000000E+00   7.49021298395976E-06
      5.31472374046323E-19   7.49021298396029E-06   7.50512910351742E-14   0.00000000000000E+00   0.00000000000000E+00
      0.00000000000000E+00   0.00000000000000E+00  -7.49021298396965E-06   9.34691501007408E-18  -7.49021298396030E-06
     -7.71345178938887E-14
      4.10000000000000E-02
      6.15000000000000E-01   6.15000000000000E-01   0.00000000000000E+00   0.00000000000000E+00   7.49124741759914E-06
      4.72302278110964E-19   7.49124741759961E-06   7.59023765164346E-14   0.00000000000000E+00   0.00000000000000E+00
      0.00000000000000E+00   0.00000000000000E+00  -7.49124741762241E-06   2.28363454330492E-17  -7.49124741759958E-06
     -7.79856033134124E-14
      4.20000000000000E-02
      6.30000000000000E-01   6.30000000000000E-01   0.00000000000000E+00   0.00000000000000E+00   7.49226265911130E-06
      4.07331012362821E-19   7.49226265911171E-06   7.67522120375966E-14   0.00000000000000E+00   0.00000000000000E+00
      0.00000000000000E+00   0.00000000000000E+00  -7.49226265908705E-06  -2.46613903804026E-17  -7.49226265911171E-06
     -7.88354387735930E-14
      4.30000000000000E-02
      6.45000000000000E-01   6.45000000000000E-01   0.00000000000000E+00   0.00000000000000E+00   7.49325973279522E-06
      5.47993178954884E-19   7.49325973279577E-06   7.76008157495540E-14   0.00000000000000E+00   0.00000000000000E+00
      0.00000000000000E+00   0.00000000000000E+00  -7.49325973280488E-06   9.16306899398677E-18  -7.49325973279572E-06
     -7.96840424252842E-14
      4.40000000000000E-02
      6.60000000000000E-01   6.60000000000000E-01   0.00000000000000E+00   0.00000000000000E+00   7.49423962039354E-06
      4.06111049357135E-19   7.49423962039395E-06   7.84482052688582E-14   0.00000000000000E+00   0.00000000000000E+00
      0.00000000000000E+00   0.00000000000000E+00  -7.49423962040668E-06   1.27026727999508E-17  -7.49423962039398E-06
     -8.05314318850165E-14
      4.50000000000000E-02
      6.75000000000000E-01   6.75000000000000E-01   0.00000000000000E+00   0.00000000000000E+00   7.49520326175740E-06
      4.73231156539374E-19   7.49520326175787E-06   7.92943976990317E-14   0.00000000000000E+00   0.00000000000000E+00
      0.00000000000000E+00   0.00000000000000E+00  -7.49520326178400E-06   2.61470976128318E-17  -7.49520326175785E-06
     -8.13776242562785E-14
      4.60000000000000E-02
      6.90000000000001E-01   6.90000000000001E-01   0.00000000000000E+00   0.00000000000000E+00   7.49615155456497E-06
      3.37340832850472E-19   7.49615155456531E-06   8.01394096510725E-14   0.00000000000000E+00   0.00000000000000E+00
      0.00000000000000E+00   0.00000000000000E+00  -7.49615155459854E-06   3.32044006500825E-17  -7.49615155456533E-06
     -8.22226361500443E-14
      4.70000000000000E-02
      7.05000000000001E-01   7.05000000000001E-01   0.00000000000000E+00   0.00000000000000E+00   7.49708535388354E-06
      5.95389470787339E-19   7.49708535388414E-06   8.09832572631286E-14   0.00000000000000E+00   0.00000000000000E+00
      0.00000000000000E+00   0.00000000000000E+00  -7.49708535388609E-06   1.92126076074970E-18  -7.49708535388417E-06
     -8.30664837044388E-14
      4.80000000000000E-02
      7.20000000000001E-01   7.20000000000001E-01   0.00000000000000E+00   0.00000000000000E+00   7.49800547233894E-06
      5.02972547707650E-19   7.49800547233944E-06   8.18259562193292E-14   0.00000000000000E+00   0.00000000000000E+00
      0.00000000000000E+00   0.00000000000000E+00  -7.49800547233600E-06  -3.49021999931302E-18  -7.49800547233949E-06
     -8.39091826035524E-14
      4.90000000000000E-02
      7.35000000000001E-01   7.35000000000001E-01   0.00000000000000E+00   0.00000000000000E+00   7.49891268150553E-06
      2.54327453744446E-19   7.49891268150579E-06   8.26675217677701E-14   0.00000000000000E+00   0.00000000000000E+00
      0.00000000000000E+00   0.00000000000000E+00  -7.49891268151612E-06   1.03466035702890E-17  -7.49891268150577E-06
     -8.47507480954766E-14
      5.00000000000000E-02
      7.50000000000001E-01   7.50000000000001E-01   0.00000000000000E+00   0.00000000000000E+00   7.49980771486169E-06
      4.56048255727771E-19   7.49980771486215E-06   8.35079687376631E-14   0.00000000000000E+00   0.00000000000000E+00
      0.00000000000000E+00   0.00000000000000E+00  -7.49980771486995E-06   7.83967980037856E-18  -7.49980771486211E-06
     -8.55911950093884E-14
      5.10000000000000E-02
      7.65000000000001E-01   7.65000000000001E-01   0.00000000000000E+00   0.00000000000000E+00   7.50069127228759E-06
      5.26798279396384E-19   7.50069127228812E-06   8.43473115556730E-14   0.00000000000000E+00   0.00000000000000E+00
      0.00000000000000E+00   0.00000000000000E+00  -7.50069127231442E-06   2.62874090692543E-17  -7.50069127228813E-06
     -8.64305377719369E-14
      5.20000000000000E-02
      7.80000000000001E-01   7.80000000000001E-01   0.00000000000000E+00   0.00000000000000E+00   7.50156402574437E-06
      3.31017708967305E-19   7.50156402574470E-06   8.51855642614839E-14   0.00000000000000E+00   0.00000000000000E+00
      0.00000000000000E+00   0.00000000000000E+00  -7.50156402574120E-06  -3.49293841121629E-18  -7.50156402574469E-06
     -8.72687904227797E-14
      5.30000000000000E-02
      7.95000000000001E-01   7.95000000000001E-01   0.00000000000000E+00   0.00000000000000E+00   7.50242662558243E-06
      3.91850065253041E-19   7.50242662558282E-06   8.60227405226298E-14   0.00000000000000E+00   0.00000000000000E+00
      0.00000000000000E+00   0.00000000000000E+00  -7.50242662558562E-06   2.81593332357146E-18  -7.50242662558281E-06
     -8.81059666294468E-14
      5.40000000000000E-02
      8.10000000000001E-01   8.10000000000001E-01   0.00000000000000E+00   0.00000000000000E+00   7.50327970684493E-06
      1.47560169014209E-19   7.50327970684507E-06   8.68588536486407E-14   0.00000000000000E+00   0.00000000000000E+00
      0.00000000000000E+00   0.00000000000000E+00  -7.50327970685007E-06   5.02551942059710E-18  -7.50327970684504E-06
     -8.89420797014328E-14
      5.50000000000000E-02
      8.25000000000001E-01   8.25000000000001E-01   0.00000000000000E+00   0.00000000000000E+00   7.50412389491506E-06
      4.15703069244470E-19   7.50412389491547E-06   8.76939166045583E-14   0.00000000000000E+00   0.00000000000000E+00
      0.00000000000000E+00   0.00000000000000E+00  -7.50412389497237E-06   5.67998152082664E-17  -7.50412389491557E-06
     -8.97771426037704E-14
      5.60000000000000E-02
      8.40000000000001E-01   8.40000000000001E-01   0.00000000000000E+00   0.00000000000000E+00   7.50495980993745E-06
      3.85940616297876E-19   7.50495980993783E-06   8.85279420238516E-14   0.00000000000000E+00   0.00000000000000E+00
      0.00000000000000E+00   0.00000000000000E+00  -7.50495980994947E-06   1.16169442046060E-17  -7.50495980993785E-06
     -9.06111679699052E-14
      5.70000000000000E-02
      8.55000000000001E-01   8.55000000000001E-01   0.00000000000000E+00   0.00000000000000E+00   7.50578806962446E-06
      1.11368473224458E-19   7.50578806962457E-06   8.93609422207848E-14   0.00000000000000E+00   0.00000000000000E+00
      0.00000000000000E+00   0.00000000000000E+00  -7.50578806960577E-06  -1.88180078218958E-17  -7.50578806962458E-06
     -9.14441681140873E-14
      5.80000000000000E-02
      8.70000000000001E-01   8.70000000000001E-01   0.00000000000000E+00   0.00000000000000E+00   7.50660929030558E-06
      5.38549131561377E-19   7.50660929030611E-06   9.01929292022577E-14   0.00000000000000E+00   0.00000000000000E+00
      0.00000000000000E+00   0.00000000000000E+00  -7.50660929030657E-06   5.25057252301427E-19  -7.50660929030604E-06
     -9.22761550431995E-14
      5.90000000000000E-02
      8.85000000000001E-01   8.85000000000001E-01   0.00000000000000E+00   0.00000000000000E+00   7.50742408632942E-06
      3.88907626812811E-19   7.50742408632981E-06   9.10239146791439E-14   0.00000000000000E+00   0.00000000000000E+00
      0.00000000000000E+00   0.00000000000000E+00  -7.50742408632533E-06  -4.41306753754487E-18  -7.50742408632975E-06
     -9.31071404680921E-14
      6.00000000000000E-02
      9.00000000000001E-01   9.00000000000001E-01   0.00000000000000E+00   0.00000000000000E+00   7.50823306813770E-06
      4.56289926132837E-20   7.50823306813774E-06   9.18539100771439E-14   0.00000000000000E+00   0.00000000000000E+00
      0.00000000000000E+00   0.00000000000000E+00  -7.50823306815673E-06   1.89425519175655E-17  -7.50823306813779E-06
     -9.39371358144507E-14
      6.10000000000000E-02
      9.15000000000001E-01   9.15000000000001E-01   0.00000000000000E+00   0.00000000000000E+00   7.50903683947646E-06
     -1.02882196698850E-19   7.50903683947635E-06   9.26829265471567E-14   0.00000000000000E+00   0.00000000000000E+00
      0.00000000000000E+00   0.00000000000000E+00  -7.50903683949930E-06   2.29628444886329E-17  -7.50903683947633E-06
     -9.47661522331571E-14
      6.20000000000000E-02
      9.30000000000001E-01   9.30000000000001E-01   0.00000000000000E+00   0.00000000000000E+00   7.50983599432839E-06
     -4.95578243381022E-20   7.50983599432834E-06   9.35109749751811E-14   0.00000000000000E+00   0.00000000000000E+00
      0.00000000000000E+00   0.00000000000000E+00  -7.50983599431757E-06  -1.07681785494663E-17  -7.50983599432834E-06
     -9.55942006101982E-14
      6.30000000000000E-02
      9.45000000000001E-01   9.45000000000001E-01   0.00000000000000E+00   0.00000000000000E+00   7.51063111387334E-06
      5.18632789955937E-20   7.51063111387339E-06   9.43380659917640E-14   0.00000000000000E+00   0.00000000000000E+00
      0.00000000000000E+00   0.00000000000000E+00  -7.51063111389408E-06   2.07379885217131E-17  -7.51063111387334E-06
     -9.64212915760935E-14
      6.40000000000000E-02
      9.60000000000001E-01   9.60000000000001E-01   0.00000000000000E+00   0.00000000000000E+00   7.51142276440171E-06
      4.05790262271975E-19   7.51142276440211E-06   9.51642099809738E-14   0.00000000000000E+00   0.00000000000000E+00
      0.00000000000000E+00   0.00000000000000E+00  -7.51142276437581E-06  -2.62591569645274E-17  -7.51142276440206E-06
     -9.72474355149020E-14
      6.50000000000000E-02
      9.75000000000001E-01   9.75000000000001E-01   0.00000000000000E+00   0.00000000000000E+00   7.51221149624395E-06
      1.25087521571046E-19   7.51221149624408E-06   9.59894170889436E-14   0.00000000000000E+00   0.00000000000000E+00
      0.00000000000000E+00   0.00000000000000E+00  -7.51221149624254E-06  -1.49613001858147E-18  -7.51221149624404E-06
     -9.80726425727367E-14
      6.60000000000000E-02
      9.90000000000001E-01   9.90000000000001E-01   0.00000000000000E+00   0.00000000000000E+00   7.51299784409551E-06
      1.00744156176712E-19   7.51299784409561E-06   9.68136972319639E-14   0.00000000000000E+00   0.00000000000000E+00
      0.00000000000000E+00   0.00000000000000E+00  -7.51299784409739E-06   1.77512657619748E-18  -7.51299784409561E-06
     -9.88969226658782E-14
      6.70000000000000E-02
      1.00500000000000E+00   1.00500000000000E+00   0.00000000000000E+00   0.00000000000000E+00   7.51378232886741E-06
      7.07999778864198E-21   7.51378232886741E-06   9.76370601041687E-14   0.00000000000000E+00   0.00000000000000E+00
      0.00000000000000E+00   0.00000000000000E+00  -7.51378232885813E-06  -9.36857839135675E-18  -7.51378232886750E-06
     -9.97202854884454E-14
      6.80000000000000E-02
      1.02000000000000E+00   1.02000000000000E+00   0.00000000000000E+00   0.00000000000000E+00   7.51456546097769E-06
     -3.03529928079122E-20   7.51456546097766E-06   9.84595151848113E-14   0.00000000000000E+00   0.00000000000000E+00
      0.00000000000000E+00   0.00000000000000E+00  -7.51456546096519E-06  -1.24619326374739E-17  -7.51456546097766E-06
     -1.00542740519673E-13
      6.90000000000000E-02