DF-ISE text

Info {
  version   = 1.0
  type      = xyplot
  datasets  = [
    "time"
    "ntype OuterVoltage" "ntype InnerVoltage" "ntype QuasiFermiPotential" "ntype DisplacementCurrent" "ntype eCurrent"
    "ntype hCurrent" "ntype TotalCurrent" "ntype Charge" "ptype OuterVoltage" "ptype InnerVoltage"
    "ptype QuasiFermiPotential" "ptype DisplacementCurrent" "ptype eCurrent" "ptype hCurrent" "ptype TotalCurrent"
    "ptype Charge" ]
  functions = [
    Time
    OuterVoltage InnerVoltage QuasiFermiPotential DisplacementCurrent eCurrent
    hCurrent TotalCurrent Charge OuterVoltage InnerVoltage
    QuasiFermiPotential DisplacementCurrent eCurrent hCurrent TotalCurrent
    Charge ]
}

Data {
      0.00000000000000E+00
      0.00000000000000E+00   0.00000000000000E+00   0.00000000000000E+00   0.00000000000000E+00   4.01163441921648E-07
     -4.01163441921655E-07  -6.77433198022312E-21   9.63415715988668E-14   0.00000000000000E+00   0.00000000000000E+00
      0.00000000000000E+00   0.00000000000000E+00   7.47382422330482E-07  -7.47382422330449E-07   3.31804015357867E-20
     -9.79512195238939E-14
      0.00000000000000E+00
      0.00000000000000E+00   0.00000000000000E+00   0.00000000000000E+00   0.00000000000000E+00   9.19144680979314E-07
     -4.01158623384476E-07   5.17986057594838E-07   9.63415378699514E-14   0.00000000000000E+00   0.00000000000000E+00
      0.00000000000000E+00   0.00000000000000E+00   1.28809015281620E-07  -6.46795073050367E-07  -5.17986057768746E-07
     -9.79511857970430E-14
      0.00000000000000E+00
      0.00000000000000E+00   0.00000000000000E+00   0.00000000000000E+00   0.00000000000000E+00   7.83354752612412E-07
     -5.90825410427975E-19   7.83354752611822E-07   9.63018252045159E-14   0.00000000000000E+00   0.00000000000000E+00
      0.00000000000000E+00   0.00000000000000E+00  -7.83354752590696E-07  -2.11402556346619E-17  -7.83354752611837E-07
     -9.79114620186467E-14
      1.00000000000000E-03
      1.50000000000000E-02   1.50000000000000E-02   0.00000000000000E+00   0.00000000000000E+00   7.84973162774838E-07
     -8.96542702743806E-16   7.84973161878296E-07   9.79111232321359E-14   0.00000000000000E+00   0.00000000000000E+00
      0.00000000000000E+00   0.00000000000000E+00  -7.84973161935635E-07   5.73586986348334E-17  -7.84973161878276E-07
     -9.95207600507170E-14
      2.00000000000000E-03
      3.00000000000000E-02   3.00000000000000E-02   0.00000000000000E+00   0.00000000000000E+00   7.86471446876414E-07
     -5.66659244795228E-17   7.86471446819748E-07   9.95020682913909E-14   0.00000000000000E+00   0.00000000000000E+00
      0.00000000000000E+00   0.00000000000000E+00  -7.86471446857122E-07   3.74019042422134E-17  -7.86471446819720E-07
     -1.01111705114953E-13
      3.00000000000000E-03
      4.50000000000000E-02   4.50000000000000E-02   0.00000000000000E+00   0.00000000000000E+00   7.87884667806808E-07
     -3.59110498888489E-17   7.87884667770897E-07   1.01075325220944E-13   0.00000000000000E+00   0.00000000000000E+00
      0.00000000000000E+00   0.00000000000000E+00  -7.87884667804661E-07   3.37592183837778E-17  -7.87884667770901E-07
     -1.02684962049896E-13
      4.00000000000000E-03
      6.00000000000000E-02   6.00000000000000E-02   0.00000000000000E+00   0.00000000000000E+00   7.89237669747024E-07
     -2.26216730259070E-17   7.89237669724402E-07   1.02631519134462E-13   0.00000000000000E+00   0.00000000000000E+00
      0.00000000000000E+00   0.00000000000000E+00  -7.89237669726445E-07   2.05323114946190E-18  -7.89237669724391E-07
     -1.04241155969142E-13
      5.00000000000000E-03
      7.50000000000000E-02   7.50000000000000E-02   0.00000000000000E+00   0.00000000000000E+00   7.90547351598334E-07
     -1.47577439672430E-17   7.90547351583576E-07   1.04171238589136E-13   0.00000000000000E+00   0.00000000000000E+00
      0.00000000000000E+00   0.00000000000000E+00  -7.90547351597097E-07   1.34734356343680E-17  -7.90547351583624E-07
     -1.05780875429809E-13
      6.00000000000000E-03
      9.00000000000000E-02   9.00000000000000E-02   0.00000000000000E+00   0.00000000000000E+00   7.91824624718700E-07
     -1.06832223863273E-17   7.91824624708017E-07   1.05695038449919E-13   0.00000000000000E+00   0.00000000000000E+00
      0.00000000000000E+00   0.00000000000000E+00  -7.91824624713383E-07   5.35490666401445E-18  -7.91824624708028E-07
     -1.07304675296812E-13
      7.00000000000000E-03
      1.05000000000000E-01   1.05000000000000E-01   0.00000000000000E+00   0.00000000000000E+00   7.93076218058778E-07
     -8.93732767191252E-18   7.93076218049840E-07   1.07203442476235E-13   0.00000000000000E+00   0.00000000000000E+00
      0.00000000000000E+00   0.00000000000000E+00  -7.93076218051220E-07   1.33554027140189E-18  -7.93076218049885E-07
     -1.08813079329552E-13
      8.00000000000000E-03
      1.20000000000000E-01   1.20000000000000E-01   0.00000000000000E+00   0.00000000000000E+00   7.94306280148677E-07
     -8.22224836779958E-18   7.94306280140455E-07   1.08696945664441E-13   0.00000000000000E+00   0.00000000000000E+00
      0.00000000000000E+00   0.00000000000000E+00  -7.94306280146735E-07   6.25780212284765E-18  -7.94306280140477E-07
     -1.10306582524383E-13
      9.00000000000000E-03
      1.35000000000000E-01   1.35000000000000E-01   0.00000000000000E+00   0.00000000000000E+00   7.95517616204512E-07
     -7.49887983629857E-18   7.95517616197013E-07   1.10176016380892E-13   0.00000000000000E+00   0.00000000000000E+00
      0.00000000000000E+00   0.00000000000000E+00  -7.95517616208467E-07   1.14186288825630E-17  -7.95517616197048E-07
     -1.11785653247634E-13
      1.00000000000000E-02
      1.50000000000000E-01   1.50000000000000E-01   0.00000000000000E+00   0.00000000000000E+00   7.96712441331985E-07
     -6.13836017542929E-18   7.96712441325847E-07   1.11641098314779E-13   0.00000000000000E+00   0.00000000000000E+00
      0.00000000000000E+00   0.00000000000000E+00  -7.96712441322209E-07  -3.67523710944237E-18  -7.96712441325884E-07
     -1.13250735188494E-13
      1.10000000000000E-02
      1.65000000000000E-01   1.65000000000000E-01   0.00000000000000E+00   0.00000000000000E+00   7.97892672509799E-07
     -3.94761120293463E-18   7.97892672505852E-07   1.13092612270249E-13   0.00000000000000E+00   0.00000000000000E+00
      0.00000000000000E+00   0.00000000000000E+00  -7.97892672496036E-07  -9.87316994039569E-18  -7.97892672505909E-07
     -1.14702249151096E-13
      1.20000000000000E-02
      1.80000000000000E-01   1.80000000000000E-01   0.00000000000000E+00   0.00000000000000E+00   7.99059922361771E-07
     -1.03440192062324E-18   7.99059922360737E-07   1.14530957808531E-13   0.00000000000000E+00   0.00000000000000E+00
      0.00000000000000E+00   0.00000000000000E+00  -7.99059922360581E-07  -1.39767690960139E-19  -7.99059922360721E-07
     -1.16140594696670E-13
      1.30000000000000E-02
      1.95000000000000E-01   1.95000000000000E-01   0.00000000000000E+00   0.00000000000000E+00   8.00215408911941E-07
      2.28813674528035E-18   8.00215408914229E-07   1.15956514746842E-13   0.00000000000000E+00   0.00000000000000E+00
      0.00000000000000E+00   0.00000000000000E+00  -8.00215408921108E-07   6.88801032869775E-18  -8.00215408914220E-07
     -1.17566151642419E-13
      1.40000000000000E-02
      2.10000000000000E-01   2.10000000000000E-01   0.00000000000000E+00   0.00000000000000E+00   8.01359952140790E-07
      5.65884963870018E-18   8.01359952146449E-07   1.17369644521512E-13   0.00000000000000E+00   0.00000000000000E+00
      0.00000000000000E+00   0.00000000000000E+00  -8.01359952160315E-07   1.38119128358017E-17  -8.01359952146503E-07
     -1.18979281424676E-13
      1.50000000000000E-02
      2.25000000000000E-01   2.25000000000000E-01   0.00000000000000E+00   0.00000000000000E+00   8.02494113834165E-07
      8.81008050799542E-18   8.02494113842975E-07   1.18770691426600E-13   0.00000000000000E+00   0.00000000000000E+00
      0.00000000000000E+00   0.00000000000000E+00  -8.02494113825476E-07  -1.75361462789343E-17  -8.02494113843012E-07
     -1.20380328337494E-13
      1.60000000000000E-02
      2.40000000000000E-01   2.40000000000000E-01   0.00000000000000E+00   0.00000000000000E+00   8.03618426127375E-07
      1.15917269870054E-17   8.03618426138967E-07   1.20159983742821E-13   0.00000000000000E+00   0.00000000000000E+00
      0.00000000000000E+00   0.00000000000000E+00  -8.03618426131737E-07  -7.27022671008329E-18  -8.03618426139007E-07
     -1.21769620661576E-13
      1.70000000000000E-02
      2.55000000000000E-01   2.55000000000000E-01   0.00000000000000E+00   0.00000000000000E+00   8.04733590934757E-07
      1.39492077472402E-17   8.04733590948706E-07   1.21537834772815E-13   0.00000000000000E+00   0.00000000000000E+00
      0.00000000000000E+00   0.00000000000000E+00  -8.04733590935964E-07  -1.27774664072779E-17  -8.04733590948741E-07
     -1.23147471699572E-13
      1.80000000000000E-02
      2.70000000000000E-01   2.70000000000000E-01   0.00000000000000E+00   0.00000000000000E+00   8.05840546008902E-07
      1.58803484976169E-17   8.05840546024782E-07   1.22904543796679E-13   0.00000000000000E+00   0.00000000000000E+00
      0.00000000000000E+00   0.00000000000000E+00  -8.05840546030708E-07   5.90540646145281E-18  -8.05840546024803E-07
     -1.24514180731563E-13
      1.90000000000000E-02
      2.85000000000000E-01   2.85000000000000E-01   0.00000000000000E+00   0.00000000000000E+00   8.06940365542039E-07
      1.73987886972622E-17   8.06940365559438E-07   1.24260396957215E-13   0.00000000000000E+00   0.00000000000000E+00
      0.00000000000000E+00   0.00000000000000E+00  -8.06940365543505E-07  -1.59801630069407E-17  -8.06940365559485E-07
     -1.25870033900350E-13
      2.00000000000000E-02
      3.00000000000000E-01   3.00000000000000E-01   0.00000000000000E+00   0.00000000000000E+00   8.08034045621912E-07
      1.85198447143898E-17   8.08034045640432E-07   1.25605668079824E-13   0.00000000000000E+00   0.00000000000000E+00
      0.00000000000000E+00   0.00000000000000E+00  -8.08034045649386E-07   8.95433341546854E-18  -8.08034045640432E-07
     -1.27215305031325E-13
      2.10000000000000E-02
      3.15000000000000E-01   3.15000000000000E-01   0.00000000000000E+00   0.00000000000000E+00   8.09122274555249E-07
      1.92649831589996E-17   8.09122274574515E-07   1.26940619429199E-13   0.00000000000000E+00   0.00000000000000E+00
      0.00000000000000E+00   0.00000000000000E+00  -8.09122274543743E-07  -3.08167254567262E-17  -8.09122274574560E-07
     -1.28550256389178E-13
      2.20000000000000E-02
      3.30000000000000E-01   3.30000000000000E-01   0.00000000000000E+00   0.00000000000000E+00   8.10205288482086E-07
      1.96721040261192E-17   8.10205288501759E-07   1.28265502404407E-13   0.00000000000000E+00   0.00000000000000E+00
      0.00000000000000E+00   0.00000000000000E+00  -8.10205288482786E-07  -1.90052075856149E-17  -8.10205288501792E-07
     -1.29875139372967E-13
      2.30000000000000E-02
      3.45000000000000E-01   3.45000000000000E-01   0.00000000000000E+00   0.00000000000000E+00   8.11282871650598E-07
      1.98009865831182E-17   8.11282871670399E-07   1.29580558175369E-13   0.00000000000000E+00   0.00000000000000E+00
      0.00000000000000E+00   0.00000000000000E+00  -8.11282871662846E-07  -7.56761006341385E-18  -8.11282871670414E-07
     -1.31190195152623E-13
      2.40000000000000E-02
      3.60000000000000E-01   3.60000000000000E-01   0.00000000000000E+00   0.00000000000000E+00   8.12354499072480E-07
      1.97283448472258E-17   8.12354499092208E-07   1.30886018265797E-13   0.00000000000000E+00   0.00000000000000E+00
      0.00000000000000E+00   0.00000000000000E+00  -8.12354499086150E-07  -6.07466815468491E-18  -8.12354499092225E-07
     -1.32495655251846E-13
      2.50000000000000E-02
      3.75000000000000E-01   3.75000000000000E-01   0.00000000000000E+00   0.00000000000000E+00   8.13419562763131E-07
      1.95302101505297E-17   8.13419562782662E-07   1.32182105089516E-13   0.00000000000000E+00   0.00000000000000E+00
      0.00000000000000E+00   0.00000000000000E+00  -8.13419562759387E-07  -2.32904317193161E-17  -8.13419562782677E-07
     -1.33791742084471E-13
      2.60000000000000E-02
      3.90000000000000E-01   3.90000000000000E-01   0.00000000000000E+00   0.00000000000000E+00   8.14477594546242E-07
      1.92877691003953E-17   8.14477594565530E-07   1.33469032447641E-13   0.00000000000000E+00   0.00000000000000E+00
      0.00000000000000E+00   0.00000000000000E+00  -8.14477594541633E-07  -2.38742258158816E-17  -8.14477594565507E-07
     -1.35078669451600E-13
      2.70000000000000E-02
      4.05000000000000E-01   4.05000000000000E-01   0.00000000000000E+00   0.00000000000000E+00   8.15528408383181E-07
      1.90412256613821E-17   8.15528408402222E-07   1.34747005993155E-13   0.00000000000000E+00   0.00000000000000E+00
      0.00000000000000E+00   0.00000000000000E+00  -8.15528408397769E-07  -4.43159207106497E-18  -8.15528408402200E-07
     -1.36356643006221E-13
      2.80000000000000E-02
      4.20000000000000E-01   4.20000000000000E-01   0.00000000000000E+00   0.00000000000000E+00   8.16572127641224E-07
      1.87920851430885E-17   8.16572127660016E-07   1.36016223667137E-13   0.00000000000000E+00   0.00000000000000E+00
      0.00000000000000E+00   0.00000000000000E+00  -8.16572127641075E-07  -1.89356600963850E-17  -8.16572127660011E-07
     -1.37625860689411E-13
      2.90000000000000E-02
      4.35000000000000E-01   4.35000000000000E-01   0.00000000000000E+00   0.00000000000000E+00   8.17609107891259E-07
      1.85565858390697E-17   8.17609107909816E-07   1.37276876108762E-13   0.00000000000000E+00   0.00000000000000E+00
      0.00000000000000E+00   0.00000000000000E+00  -8.17609107922647E-07   1.28564948849758E-17  -8.17609107909790E-07
     -1.38886513140338E-13
      3.00000000000000E-02
      4.50000000000000E-01   4.50000000000000E-01   0.00000000000000E+00   0.00000000000000E+00   8.18639805894074E-07
      1.83231146087881E-17   8.18639805912397E-07   1.38529147039344E-13   0.00000000000000E+00   0.00000000000000E+00
      0.00000000000000E+00   0.00000000000000E+00  -8.18639805939400E-07   2.70103750280016E-17  -8.18639805912390E-07
     -1.40138784080308E-13
      3.10000000000000E-02
      4.65000000000000E-01   4.65000000000000E-01   0.00000000000000E+00   0.00000000000000E+00   8.19664654926391E-07
      1.80628448308128E-17   8.19664654944454E-07   1.39773213620177E-13   0.00000000000000E+00   0.00000000000000E+00
      0.00000000000000E+00   0.00000000000000E+00  -8.19664654929119E-07  -1.53384938372545E-17  -8.19664654944457E-07
     -1.41382850670618E-13
      3.20000000000000E-02
      4.80000000000000E-01   4.80000000000000E-01   0.00000000000000E+00   0.00000000000000E+00   8.20683994940537E-07
      1.77670849437850E-17   8.20683994958304E-07   1.41009246784318E-13   0.00000000000000E+00   0.00000000000000E+00
      0.00000000000000E+00   0.00000000000000E+00  -8.20683994957859E-07  -4.28257253163479E-19  -8.20683994958288E-07
     -1.42618883844311E-13
      3.30000000000000E-02
      4.95000000000000E-01   4.95000000000000E-01   0.00000000000000E+00   0.00000000000000E+00   8.21698079154927E-07
      1.74399955940026E-17   8.21698079172367E-07   1.42237411543418E-13   0.00000000000000E+00   0.00000000000000E+00
      0.00000000000000E+00   0.00000000000000E+00  -8.21698079172583E-07   2.73599034872246E-19  -8.21698079172309E-07
     -1.43847048613045E-13
      3.40000000000000E-02
      5.10000000000000E-01   5.10000000000000E-01   0.00000000000000E+00   0.00000000000000E+00   8.22707145877893E-07
      1.70970986370294E-17   8.22707145894990E-07   1.43457867271859E-13   0.00000000000000E+00   0.00000000000000E+00
      0.00000000000000E+00   0.00000000000000E+00  -8.22707145914198E-07   1.92296361689653E-17  -8.22707145894968E-07
     -1.45067504351190E-13
      3.50000000000000E-02
      5.25000000000000E-01   5.25000000000000E-01   0.00000000000000E+00   0.00000000000000E+00   8.23711517860933E-07
      1.67593100388726E-17   8.23711517877692E-07   1.44670767971318E-13   0.00000000000000E+00   0.00000000000000E+00
      0.00000000000000E+00   0.00000000000000E+00  -8.23711517884214E-07   6.53721907377414E-18  -8.23711517877677E-07
     -1.46280405060416E-13
      3.60000000000000E-02
      5.40000000000000E-01   5.40000000000000E-01   0.00000000000000E+00   0.00000000000000E+00   8.24711682150021E-07
      1.64455740590613E-17   8.24711682166467E-07   1.45876262519030E-13   0.00000000000000E+00   0.00000000000000E+00
      0.00000000000000E+00   0.00000000000000E+00  -8.24711682184315E-07   1.78877728452877E-17  -8.24711682166428E-07
     -1.47485899617960E-13
      3.70000000000000E-02
      5.55000000000000E-01   5.55000000000000E-01   0.00000000000000E+00   0.00000000000000E+00   8.25708313567381E-07
      1.61668204779346E-17   8.25708313583548E-07   1.47074494902464E-13   0.00000000000000E+00   0.00000000000000E+00
      0.00000000000000E+00   0.00000000000000E+00  -8.25708313582809E-07  -7.09276624957908E-19  -8.25708313583518E-07
     -1.48684132011277E-13
      3.80000000000000E-02
      5.70000000000000E-01   5.70000000000000E-01   0.00000000000000E+00   0.00000000000000E+00   8.26702228786507E-07
      1.59238177128727E-17   8.26702228802431E-07   1.48265604441984E-13   0.00000000000000E+00   0.00000000000000E+00
      0.00000000000000E+00   0.00000000000000E+00  -8.26702228794709E-07  -7.71238940121514E-18  -8.26702228802422E-07
     -1.49875241560728E-13
      3.90000000000000E-02
      5.85000000000000E-01   5.85000000000000E-01   0.00000000000000E+00   0.00000000000000E+00   8.27694284288608E-07
      1.57073276088663E-17   8.27694284304315E-07   1.49449726002049E-13   0.00000000000000E+00   0.00000000000000E+00
      0.00000000000000E+00   0.00000000000000E+00  -8.27694284295661E-07  -8.65464372177365E-18  -8.27694284304315E-07
     -1.51059363130770E-13
      4.00000000000000E-02
      6.00000000000000E-01   6.00000000000000E-01   0.00000000000000E+00   0.00000000000000E+00   8.28685250200960E-07
      1.55033390204059E-17   8.28685250216463E-07   1.50626990190621E-13   0.00000000000000E+00   0.00000000000000E+00
      0.00000000000000E+00   0.00000000000000E+00  -8.28685250220279E-07   3.81595598898096E-18  -8.28685250216463E-07
     -1.52236627329352E-13
      4.10000000000000E-02
      6.15000000000000E-01   6.15000000000000E-01   0.00000000000000E+00   0.00000000000000E+00   8.29675698150378E-07
      1.52972953559284E-17   8.29675698165675E-07   1.51797523546317E-13   0.00000000000000E+00   0.00000000000000E+00
      0.00000000000000E+00   0.00000000000000E+00  -8.29675698179346E-07   1.36483920547803E-17  -8.29675698165697E-07
     -1.53407160695091E-13
      4.20000000000000E-02
      6.30000000000000E-01   6.30000000000000E-01   0.00000000000000E+00   0.00000000000000E+00   8.30665934977530E-07
      1.50795526161576E-17   8.30665934992609E-07   1.52961448712953E-13   0.00000000000000E+00   0.00000000000000E+00
      0.00000000000000E+00   0.00000000000000E+00  -8.30665934985311E-07  -7.27572909389068E-18  -8.30665934992587E-07
     -1.54571085871790E-13
      4.30000000000000E-02
      6.45000000000000E-01   6.45000000000000E-01   0.00000000000000E+00   0.00000000000000E+00   8.31655998740590E-07
      1.48470323386683E-17   8.31655998755437E-07   1.54118884601758E-13   0.00000000000000E+00   0.00000000000000E+00
      0.00000000000000E+00   0.00000000000000E+00  -8.31655998777842E-07   2.23971052217147E-17  -8.31655998755445E-07
     -1.55728521770678E-13
      4.40000000000000E-02
      6.60000000000000E-01   6.60000000000000E-01   0.00000000000000E+00   0.00000000000000E+00   8.32645713870582E-07
      1.46047220470743E-17   8.32645713885187E-07   1.55269946542183E-13   0.00000000000000E+00   0.00000000000000E+00
      0.00000000000000E+00   0.00000000000000E+00  -8.32645713908324E-07   2.31535761522703E-17  -8.32645713885171E-07
     -1.56879583721207E-13
      4.50000000000000E-02
      6.75000000000000E-01   6.75000000000000E-01   0.00000000000000E+00   0.00000000000000E+00   8.33634784633364E-07
      1.43618906789840E-17   8.33634784647725E-07   1.56414746422828E-13   0.00000000000000E+00   0.00000000000000E+00
      0.00000000000000E+00   0.00000000000000E+00  -8.33634784661173E-07   1.34454966625032E-17  -8.33634784647727E-07
     -1.58024383611964E-13
      4.60000000000000E-02
      6.90000000000001E-01   6.90000000000001E-01   0.00000000000000E+00   0.00000000000000E+00   8.34622896332492E-07
      1.41113378064405E-17   8.34622896346604E-07   1.57553392824276E-13   0.00000000000000E+00   0.00000000000000E+00
      0.00000000000000E+00   0.00000000000000E+00  -8.34622896358622E-07   1.20430698036269E-17  -8.34622896346579E-07
     -1.59163030023545E-13
      4.70000000000000E-02
      7.05000000000001E-01   7.05000000000001E-01   0.00000000000000E+00   0.00000000000000E+00   8.35609792840934E-07
      1.39031333520200E-17   8.35609792854837E-07   1.58685991145561E-13   0.00000000000000E+00   0.00000000000000E+00
      0.00000000000000E+00   0.00000000000000E+00  -8.35609792841167E-07  -1.36496888941603E-17  -8.35609792854816E-07
     -1.60295628354967E-13
      4.80000000000000E-02
      7.20000000000001E-01   7.20000000000001E-01   0.00000000000000E+00   0.00000000000000E+00   8.36595312992589E-07
      1.37110288719759E-17   8.36595313006300E-07   1.59812643725404E-13   0.00000000000000E+00   0.00000000000000E+00
      0.00000000000000E+00   0.00000000000000E+00  -8.36595313029210E-07   2.29165100791192E-17  -8.36595313006294E-07
     -1.61422280944950E-13
      4.90000000000000E-02
      7.35000000000001E-01   7.35000000000001E-01   0.00000000000000E+00   0.00000000000000E+00   8.37579381861768E-07
      1.35556200852759E-17   8.37579381875324E-07   1.60933449958800E-13   0.00000000000000E+00   0.00000000000000E+00
      0.00000000000000E+00   0.00000000000000E+00  -8.37579381859473E-07  -1.58344453538566E-17  -8.37579381875307E-07
     -1.62543087188498E-13
      5.00000000000000E-02
      7.50000000000001E-01   7.50000000000001E-01   0.00000000000000E+00   0.00000000000000E+00   8.38561968371115E-07
      1.34201666584757E-17   8.38561968384535E-07   1.62048506408952E-13   0.00000000000000E+00   0.00000000000000E+00
      0.00000000000000E+00   0.00000000000000E+00  -8.38561968393482E-07   8.97491622300753E-18  -8.38561968384507E-07
     -1.63658143648795E-13
      5.10000000000000E-02
      7.65000000000001E-01   7.65000000000001E-01   0.00000000000000E+00   0.00000000000000E+00   8.39543029236306E-07
      1.32952836116691E-17   8.39543029249601E-07   1.63157906914178E-13   0.00000000000000E+00   0.00000000000000E+00
      0.00000000000000E+00   0.00000000000000E+00  -8.39543029257780E-07   8.17711243302968E-18  -8.39543029249603E-07
     -1.64767544164161E-13
      5.20000000000000E-02
      7.80000000000001E-01   7.80000000000001E-01   0.00000000000000E+00   0.00000000000000E+00   8.40522462677247E-07
      1.31722412427774E-17   8.40522462690420E-07   1.64261742689371E-13   0.00000000000000E+00   0.00000000000000E+00
      0.00000000000000E+00   0.00000000000000E+00  -8.40522462673409E-07  -1.69569179107302E-17  -8.40522462690366E-07
     -1.65871379949488E-13
      5.30000000000000E-02
      7.95000000000001E-01   7.95000000000001E-01   0.00000000000000E+00   0.00000000000000E+00   8.41500089670572E-07
      1.30441941363184E-17   8.41500089683616E-07   1.65360102421714E-13   0.00000000000000E+00   0.00000000000000E+00
      0.00000000000000E+00   0.00000000000000E+00  -8.41500089683757E-07   1.24282858326434E-19  -8.41500089683633E-07
     -1.66969739691963E-13
      5.40000000000000E-02
      8.10000000000001E-01   8.10000000000001E-01   0.00000000000000E+00   0.00000000000000E+00   8.42475671253091E-07
      1.29083297348182E-17   8.42475671265999E-07   1.66453072360698E-13   0.00000000000000E+00   0.00000000000000E+00
      0.00000000000000E+00   0.00000000000000E+00  -8.42475671236412E-07  -2.96051797048697E-17  -8.42475671266017E-07
     -1.68062709641057E-13
      5.50000000000000E-02
      8.25000000000001E-01   8.25000000000001E-01   0.00000000000000E+00   0.00000000000000E+00   8.43448958787397E-07
      1.27654461581648E-17   8.43448958800162E-07   1.67540736402910E-13   0.00000000000000E+00   0.00000000000000E+00
      0.00000000000000E+00   0.00000000000000E+00  -8.43448958809884E-07   9.72202852674680E-18  -8.43448958800162E-07
     -1.69150373693366E-13
      5.60000000000000E-02
      8.40000000000001E-01   8.40000000000001E-01   0.00000000000000E+00   0.00000000000000E+00   8.44419763588494E-07
      1.26201597836349E-17   8.44419763601115E-07   1.68623176172333E-13   0.00000000000000E+00   0.00000000000000E+00
      0.00000000000000E+00   0.00000000000000E+00  -8.44419763600818E-07  -2.95171742804510E-19  -8.44419763601114E-07
     -1.70232813472862E-13
      5.70000000000000E-02
      8.55000000000001E-01   8.55000000000001E-01   0.00000000000000E+00   0.00000000000000E+00   8.45388026097679E-07
      1.24782655705169E-17   8.45388026110158E-07   1.69700471097142E-13   0.00000000000000E+00   0.00000000000000E+00
      0.00000000000000E+00   0.00000000000000E+00  -8.45388026120614E-07   1.04700618232468E-17  -8.45388026110144E-07
     -1.71310108407723E-13
      5.80000000000000E-02
      8.70000000000001E-01   8.70000000000001E-01   0.00000000000000E+00   0.00000000000000E+00   8.46353864894411E-07
      1.23455317458421E-17   8.46353864906756E-07   1.70772698483888E-13   0.00000000000000E+00   0.00000000000000E+00
      0.00000000000000E+00   0.00000000000000E+00  -8.46353864903719E-07  -3.04065101159204E-18  -8.46353864906759E-07
     -1.72382335804504E-13
      5.90000000000000E-02
      8.85000000000001E-01   8.85000000000001E-01   0.00000000000000E+00   0.00000000000000E+00   8.47317592053576E-07
      1.22255939640813E-17   8.47317592065801E-07   1.71839933589702E-13   0.00000000000000E+00   0.00000000000000E+00
      0.00000000000000E+00   0.00000000000000E+00  -8.47317592075416E-07   9.61466358865535E-18  -8.47317592065802E-07
     -1.73449570920324E-13
      6.00000000000000E-02
      9.00000000000001E-01   9.00000000000001E-01   0.00000000000000E+00   0.00000000000000E+00   8.48279691256635E-07
      1.21193135979633E-17   8.48279691268755E-07   1.72902249692842E-13   0.00000000000000E+00   0.00000000000000E+00
      0.00000000000000E+00   0.00000000000000E+00  -8.48279691264205E-07  -4.53786552546139E-18  -8.48279691268742E-07
     -1.74511887033426E-13
      6.10000000000000E-02
      9.15000000000001E-01   9.15000000000001E-01   0.00000000000000E+00   0.00000000000000E+00   8.49240765188182E-07
      1.20239643622984E-17   8.49240765200206E-07   1.73959718161440E-13   0.00000000000000E+00   0.00000000000000E+00
      0.00000000000000E+00   0.00000000000000E+00  -8.49240765191332E-07  -8.86641951750117E-18  -8.49240765200199E-07
     -1.75569355511941E-13
      6.20000000000000E-02
      9.30000000000001E-01   9.30000000000001E-01   0.00000000000000E+00   0.00000000000000E+00   8.50201466138917E-07
      1.19353615112539E-17   8.50201466150853E-07   1.75012408520147E-13   0.00000000000000E+00   0.00000000000000E+00
      0.00000000000000E+00   0.00000000000000E+00  -8.50201466169151E-07   1.83164099215358E-17  -8.50201466150835E-07
     -1.76622045880524E-13
      6.30000000000000E-02
      9.45000000000001E-01   9.45000000000001E-01   0.00000000000000E+00   0.00000000000000E+00   8.51162426855424E-07
      1.18480775190653E-17   8.51162426867272E-07   1.76060388514217E-13   0.00000000000000E+00   0.00000000000000E+00
      0.00000000000000E+00   0.00000000000000E+00  -8.51162426881511E-07   1.43024010337080E-17  -8.51162426867208E-07
     -1.77670025884422E-13
      6.40000000000000E-02
      9.60000000000001E-01   9.60000000000001E-01   0.00000000000000E+00   0.00000000000000E+00   8.52124207389577E-07
      1.17569809399668E-17   8.52124207401334E-07   1.77103724170623E-13   0.00000000000000E+00   0.00000000000000E+00
      0.00000000000000E+00   0.00000000000000E+00  -8.52124207415165E-07   1.38231412010095E-17  -8.52124207401342E-07
     -1.78713361550584E-13
      6.50000000000000E-02
      9.75000000000001E-01   9.75000000000001E-01   0.00000000000000E+00   0.00000000000000E+00   8.53087268780269E-07
      1.16578204000003E-17   8.53087268791926E-07   1.78142479855988E-13   0.00000000000000E+00   0.00000000000000E+00
      0.00000000000000E+00   0.00000000000000E+00  -8.53087268800780E-07   8.85909939117474E-18  -8.53087268791921E-07
     -1.79752117245654E-13
      6.60000000000000E-02
      9.90000000000001E-01   9.90000000000001E-01   0.00000000000000E+00   0.00000000000000E+00   8.54051977651300E-07
      1.15380456445044E-17   8.54051977662838E-07   1.79176718331344E-13   0.00000000000000E+00   0.00000000000000E+00
      0.00000000000000E+00   0.00000000000000E+00  -8.54051977668219E-07   5.41869597978872E-18  -8.54051977662801E-07
     -1.80786355730642E-13
      6.70000000000000E-02
      1.00500000000000E+00   1.00500000000000E+00   0.00000000000000E+00   0.00000000000000E+00   8.55018634587728E-07
      1.14155586450044E-17   8.55018634599143E-07   1.80206500804045E-13   0.00000000000000E+00   0.00000000000000E+00
      0.00000000000000E+00   0.00000000000000E+00  -8.55018634596465E-07  -2.70823634831984E-18  -8.55018634599173E-07
     -1.81816138212900E-13
      6.80000000000000E-02
      1.02000000000000E+00   1.02000000000000E+00   0.00000000000000E+00   0.00000000000000E+00   8.55987520968239E-07
      1.12992604330451E-17   8.55987520979539E-07   1.81231886977181E-13   0.00000000000000E+00   0.00000000000000E+00
      0.00000000000000E+00   0.00000000000000E+00  -8.55987520976406E-07  -3.12779705267836E-18  -8.55987520979534E-07
     -1.82841524395524E-13
      6.90000000000000E-02