DF-ISE text

Info {
  version   = 1.0
  type      = xyplot
  datasets  = [
    "time"
    "ntype OuterVoltage" "ntype InnerVoltage" "ntype QuasiFermiPotential" "ntype DisplacementCurrent" "ntype eCurrent"
    "ntype hCurrent" "ntype TotalCurrent" "ntype Charge" "ptype OuterVoltage" "ptype InnerVoltage"
    "ptype QuasiFermiPotential" "ptype DisplacementCurrent" "ptype eCurrent" "ptype hCurrent" "ptype TotalCurrent"
    "ptype Charge" ]
  functions = [
    Time
    OuterVoltage InnerVoltage QuasiFermiPotential DisplacementCurrent eCurrent
    hCurrent TotalCurrent Charge OuterVoltage InnerVoltage
    QuasiFermiPotential DisplacementCurrent eCurrent hCurrent TotalCurrent
    Charge ]
}

Data {
      0.00000000000000E+00
      0.00000000000000E+00   0.00000000000000E+00   0.00000000000000E+00   0.00000000000000E+00   4.01163441921787E-06
     -4.01163441921782E-06   4.86645889191538E-20   9.63415715988668E-14   0.00000000000000E+00   0.00000000000000E+00
      0.00000000000000E+00   0.00000000000000E+00   7.47382422702814E-06  -7.47382422702840E-06  -2.64337198901767E-19
     -9.79512195238939E-14
      0.00000000000000E+00
      0.00000000000000E+00   0.00000000000000E+00   0.00000000000000E+00   0.00000000000000E+00   9.19144091546459E-06
     -4.01157994967772E-06   5.17986096578688E-06   9.63412343093418E-14   0.00000000000000E+00   0.00000000000000E+00
      0.00000000000000E+00   0.00000000000000E+00   1.28809504717332E-06  -6.46795601469974E-06  -5.17986096752642E-06
     -9.79508822556870E-14
      0.00000000000000E+00
      0.00000000000000E+00   0.00000000000000E+00   0.00000000000000E+00   0.00000000000000E+00   7.83273265259006E-06
      1.47303663556568E-17   7.83273265260479E-06   9.59436755234237E-14   0.00000000000000E+00   0.00000000000000E+00
      0.00000000000000E+00   0.00000000000000E+00  -7.83273265260376E-06  -1.09548943628080E-18  -7.83273265260486E-06
     -9.75530993375704E-14
      1.00000000000000E-03
      1.50000000000000E-02   1.50000000000000E-02   0.00000000000000E+00   0.00000000000000E+00   7.84362151976247E-06
     -5.94002639092354E-17   7.84362151970307E-06   9.75565638779916E-14   0.00000000000000E+00   0.00000000000000E+00
      0.00000000000000E+00   0.00000000000000E+00  -7.84362151987921E-06   1.76248773413701E-16  -7.84362151970296E-06
     -9.91659872737534E-14
      2.00000000000000E-03
      3.00000000000000E-02   3.00000000000000E-02   0.00000000000000E+00   0.00000000000000E+00   7.85429191516094E-06
      1.31037927044311E-16   7.85429191529198E-06   9.91509646188461E-14   0.00000000000000E+00   0.00000000000000E+00
      0.00000000000000E+00   0.00000000000000E+00  -7.85429191535889E-06   6.68928898157769E-17  -7.85429191529199E-06
     -1.00760387605444E-13
      3.00000000000000E-03
      4.50000000000000E-02   4.50000000000000E-02   0.00000000000000E+00   0.00000000000000E+00   7.86478441469713E-06
      1.15049228523328E-16   7.86478441481217E-06   1.00727550774653E-13   0.00000000000000E+00   0.00000000000000E+00
      0.00000000000000E+00   0.00000000000000E+00  -7.86478441484463E-06   3.23972654634169E-17  -7.86478441481223E-06
     -1.02336973359770E-13
      4.00000000000000E-03
      6.00000000000000E-02   6.00000000000000E-02   0.00000000000000E+00   0.00000000000000E+00   7.87512816859086E-06
      9.67453939474194E-17   7.87512816868761E-06   1.02286955017474E-13   0.00000000000000E+00   0.00000000000000E+00
      0.00000000000000E+00   0.00000000000000E+00  -7.87512816872081E-06   3.31931046026955E-17  -7.87512816868761E-06
     -1.03896377207671E-13
      5.00000000000000E-03
      7.50000000000000E-02   7.50000000000000E-02   0.00000000000000E+00   0.00000000000000E+00   7.88534352198916E-06
      7.93402746331414E-17   7.88534352206850E-06   1.03829772879928E-13   0.00000000000000E+00   0.00000000000000E+00
      0.00000000000000E+00   0.00000000000000E+00  -7.88534352210845E-06   3.99324187985148E-17  -7.88534352206851E-06
     -1.05439194680981E-13
      6.00000000000000E-03
      9.00000000000000E-02   9.00000000000000E-02   0.00000000000000E+00   0.00000000000000E+00   7.89544440840175E-06
      6.43716709422844E-17   7.89544440846612E-06   1.05356565657959E-13   0.00000000000000E+00   0.00000000000000E+00
      0.00000000000000E+00   0.00000000000000E+00  -7.89544440850130E-06   3.51764495284979E-17  -7.89544440846612E-06
     -1.06965987075116E-13
      7.00000000000000E-03
      1.05000000000000E-01   1.05000000000000E-01   0.00000000000000E+00   0.00000000000000E+00   7.90544057018584E-06
      5.23843279495547E-17   7.90544057023822E-06   1.06867863031452E-13   0.00000000000000E+00   0.00000000000000E+00
      0.00000000000000E+00   0.00000000000000E+00  -7.90544057028713E-06   4.88973729864450E-17  -7.90544057023823E-06
     -1.08477284069571E-13
      8.00000000000000E-03
      1.20000000000000E-01   1.20000000000000E-01   0.00000000000000E+00   0.00000000000000E+00   7.91533941088945E-06
      4.33991621610049E-17   7.91533941093285E-06   1.08364165443251E-13   0.00000000000000E+00   0.00000000000000E+00
      0.00000000000000E+00   0.00000000000000E+00  -7.91533941094030E-06   7.59579781088203E-18  -7.91533941093270E-06
     -1.09973586106909E-13
      9.00000000000000E-03
      1.35000000000000E-01   1.35000000000000E-01   0.00000000000000E+00   0.00000000000000E+00   7.92514723873396E-06
      3.73924650348411E-17   7.92514723877135E-06   1.09845946275412E-13   0.00000000000000E+00   0.00000000000000E+00
      0.00000000000000E+00   0.00000000000000E+00  -7.92514723875272E-06  -1.88064504638634E-17  -7.92514723877153E-06
     -1.11455366568927E-13
      1.00000000000000E-02
      1.50000000000000E-01   1.50000000000000E-01   0.00000000000000E+00   0.00000000000000E+00   7.93486983222616E-06
      3.39357562929951E-17   7.93486983226010E-06   1.11313653849709E-13   0.00000000000000E+00   0.00000000000000E+00
      0.00000000000000E+00   0.00000000000000E+00  -7.93486983227965E-06   1.95097479712753E-17  -7.93486983226014E-06
     -1.12923073777180E-13
      1.10000000000000E-02
      1.65000000000000E-01   1.65000000000000E-01   0.00000000000000E+00   0.00000000000000E+00   7.94451247682119E-06
      3.23304108081368E-17   7.94451247685352E-06   1.12767713266309E-13   0.00000000000000E+00   0.00000000000000E+00
      0.00000000000000E+00   0.00000000000000E+00  -7.94451247685967E-06   6.09013073427751E-18  -7.94451247685358E-06
     -1.14377132831614E-13
      1.20000000000000E-02
      1.80000000000000E-01   1.80000000000000E-01   0.00000000000000E+00   0.00000000000000E+00   7.95407977476257E-06
      3.17718475867167E-17   7.95407977479435E-06   1.14208528085344E-13   0.00000000000000E+00   0.00000000000000E+00
      0.00000000000000E+00   0.00000000000000E+00  -7.95407977482924E-06   3.49297769424214E-17  -7.95407977479431E-06
     -1.15817947292176E-13
      1.30000000000000E-02
      1.95000000000000E-01   1.95000000000000E-01   0.00000000000000E+00   0.00000000000000E+00   7.96357550852669E-06
      3.17947957443088E-17   7.96357550855848E-06   1.15636481855592E-13   0.00000000000000E+00   0.00000000000000E+00
      0.00000000000000E+00   0.00000000000000E+00  -7.96357550852970E-06  -2.88681210739473E-17  -7.96357550855857E-06
     -1.17245900707480E-13
      1.40000000000000E-02
      2.10000000000000E-01   2.10000000000000E-01   0.00000000000000E+00   0.00000000000000E+00   7.97300274100882E-06
      3.16064332402127E-17   7.97300274104043E-06   1.17051939497798E-13   0.00000000000000E+00   0.00000000000000E+00
      0.00000000000000E+00   0.00000000000000E+00  -7.97300274105607E-06   1.55785723659741E-17  -7.97300274104049E-06
     -1.18661357998147E-13
      1.50000000000000E-02
      2.25000000000000E-01   2.25000000000000E-01   0.00000000000000E+00   0.00000000000000E+00   7.98236412115063E-06
      3.09433830765996E-17   7.98236412118158E-06   1.18455248558098E-13   0.00000000000000E+00   0.00000000000000E+00
      0.00000000000000E+00   0.00000000000000E+00  -7.98236412116948E-06  -1.22719053640384E-17  -7.98236412118175E-06
     -1.20064666710195E-13
      1.60000000000000E-02
      2.40000000000000E-01   2.40000000000000E-01   0.00000000000000E+00   0.00000000000000E+00   7.99166224498924E-06
      2.98753662202514E-17   7.99166224501912E-06   1.19846740351090E-13   0.00000000000000E+00   0.00000000000000E+00
      0.00000000000000E+00   0.00000000000000E+00  -7.99166224502337E-06   4.21520037858078E-18  -7.99166224501916E-06
     -1.21456158158109E-13
      1.70000000000000E-02
      2.55000000000000E-01   2.55000000000000E-01   0.00000000000000E+00   0.00000000000000E+00   8.00089989798028E-06
      2.86674165288910E-17   8.00089989800895E-06   1.21226731011233E-13   0.00000000000000E+00   0.00000000000000E+00
      0.00000000000000E+00   0.00000000000000E+00  -8.00089989801908E-06   1.00754047701853E-17  -8.00089989800901E-06
     -1.22836148476215E-13
      1.80000000000000E-02
      2.70000000000000E-01   2.70000000000000E-01   0.00000000000000E+00   0.00000000000000E+00   8.01008007045042E-06
      2.75978324602176E-17   8.01008007047802E-06   1.22595522466833E-13   0.00000000000000E+00   0.00000000000000E+00
      0.00000000000000E+00   0.00000000000000E+00  -8.01008007049411E-06   1.60162328536654E-17  -8.01008007047809E-06
     -1.24204939592703E-13
      1.90000000000000E-02
      2.85000000000000E-01   2.85000000000000E-01   0.00000000000000E+00   0.00000000000000E+00   8.01920576117048E-06
      2.68178683651579E-17   8.01920576119729E-06   1.23953403344218E-13   0.00000000000000E+00   0.00000000000000E+00
      0.00000000000000E+00   0.00000000000000E+00  -8.01920576121194E-06   1.47028853139544E-17  -8.01920576119724E-06
     -1.25562820133756E-13
      2.00000000000000E-02
      3.00000000000000E-01   3.00000000000000E-01   0.00000000000000E+00   0.00000000000000E+00   8.02827968337085E-06
      2.62983234381871E-17   8.02827968339715E-06   1.25300649804387E-13   0.00000000000000E+00   0.00000000000000E+00
      0.00000000000000E+00   0.00000000000000E+00  -8.02827968340889E-06   1.17617613404391E-17  -8.02827968339713E-06
     -1.26910066260250E-13
      2.10000000000000E-02
      3.15000000000000E-01   3.15000000000000E-01   0.00000000000000E+00   0.00000000000000E+00   8.03730402140380E-06
      2.58742790946601E-17   8.03730402142967E-06   1.26637526312432E-13   0.00000000000000E+00   0.00000000000000E+00
      0.00000000000000E+00   0.00000000000000E+00  -8.03730402143587E-06   6.19217041876604E-18  -8.03730402142968E-06
     -1.28246942437181E-13
      2.20000000000000E-02
      3.30000000000000E-01   3.30000000000000E-01   0.00000000000000E+00   0.00000000000000E+00   8.04628035169101E-06
      2.53450997542225E-17   8.04628035171636E-06   1.27964286340958E-13   0.00000000000000E+00   0.00000000000000E+00
      0.00000000000000E+00   0.00000000000000E+00  -8.04628035173857E-06   2.22662977780430E-17  -8.04628035171630E-06
     -1.29573702137065E-13
      2.30000000000000E-02
      3.45000000000000E-01   3.45000000000000E-01   0.00000000000000E+00   0.00000000000000E+00   8.05520976322175E-06
      2.45772294402824E-17   8.05520976324633E-06   1.29281173011661E-13   0.00000000000000E+00   0.00000000000000E+00
      0.00000000000000E+00   0.00000000000000E+00  -8.05520976323800E-06  -8.45150681737746E-18  -8.05520976324645E-06
     -1.30890588481536E-13
      2.40000000000000E-02
      3.60000000000000E-01   3.60000000000000E-01   0.00000000000000E+00   0.00000000000000E+00   8.06409312671485E-06
      2.35623244483522E-17   8.06409312673841E-06   1.30588419682276E-13   0.00000000000000E+00   0.00000000000000E+00
      0.00000000000000E+00   0.00000000000000E+00  -8.06409312672755E-06  -1.08801521610964E-17  -8.06409312673843E-06
     -1.32197834828274E-13
      2.50000000000000E-02
      3.75000000000000E-01   3.75000000000000E-01   0.00000000000000E+00   0.00000000000000E+00   8.07293140327856E-06
      2.24080428683757E-17   8.07293140330097E-06   1.31886250487968E-13   0.00000000000000E+00   0.00000000000000E+00
      0.00000000000000E+00   0.00000000000000E+00  -8.07293140332164E-06   2.06793258457296E-17  -8.07293140330096E-06
     -1.33495665312392E-13
      2.60000000000000E-02
      3.90000000000000E-01   3.90000000000000E-01   0.00000000000000E+00   0.00000000000000E+00   8.08172587715926E-06
      2.12372391333766E-17   8.08172587718050E-06   1.33174880845862E-13   0.00000000000000E+00   0.00000000000000E+00
      0.00000000000000E+00   0.00000000000000E+00  -8.08172587715954E-06  -2.09680189922884E-17  -8.08172587718050E-06
     -1.34784295350942E-13
      2.70000000000000E-02
      4.05000000000000E-01   4.05000000000000E-01   0.00000000000000E+00   0.00000000000000E+00   8.09047823201658E-06
      2.02970440494616E-17   8.09047823203688E-06   1.34454517929384E-13   0.00000000000000E+00   0.00000000000000E+00
      0.00000000000000E+00   0.00000000000000E+00  -8.09047823201919E-06  -1.76638387402349E-17  -8.09047823203685E-06
     -1.36063932117250E-13
      2.80000000000000E-02
      4.20000000000000E-01   4.20000000000000E-01   0.00000000000000E+00   0.00000000000000E+00   8.09919047780580E-06
      1.94464592716540E-17   8.09919047782525E-06   1.35725361115048E-13   0.00000000000000E+00   0.00000000000000E+00
      0.00000000000000E+00   0.00000000000000E+00  -8.09919047781730E-06  -7.91857289143896E-18  -8.09919047782522E-06
     -1.37334774987750E-13
      2.90000000000000E-02
      4.35000000000000E-01   4.35000000000000E-01   0.00000000000000E+00   0.00000000000000E+00   8.10786476437674E-06
      1.88776060214113E-17   8.10786476439561E-06   1.36987602402676E-13   0.00000000000000E+00   0.00000000000000E+00
      0.00000000000000E+00   0.00000000000000E+00  -8.10786476442412E-06   2.85374704092447E-17  -8.10786476439558E-06
     -1.38597015962136E-13
      3.00000000000000E-02
      4.50000000000000E-01   4.50000000000000E-01   0.00000000000000E+00   0.00000000000000E+00   8.11650317503982E-06
      1.85518812993492E-17   8.11650317505837E-06   1.38241426807925E-13   0.00000000000000E+00   0.00000000000000E+00
      0.00000000000000E+00   0.00000000000000E+00  -8.11650317509469E-06   3.62538023406466E-17  -8.11650317505844E-06
     -1.39850840055969E-13
      3.10000000000000E-02
      4.65000000000000E-01   4.65000000000000E-01   0.00000000000000E+00   0.00000000000000E+00   8.12510758650446E-06
      1.82236982897253E-17   8.12510758652268E-06   1.39487012725672E-13   0.00000000000000E+00   0.00000000000000E+00
      0.00000000000000E+00   0.00000000000000E+00  -8.12510758652585E-06   3.17469017731614E-18  -8.12510758652268E-06
     -1.41096425664015E-13
      3.20000000000000E-02
      4.80000000000000E-01   4.80000000000000E-01   0.00000000000000E+00   0.00000000000000E+00   8.13367963395115E-06
      1.77793179891632E-17   8.13367963396893E-06   1.40724532264947E-13   0.00000000000000E+00   0.00000000000000E+00
      0.00000000000000E+00   0.00000000000000E+00  -8.13367963398981E-06   2.08258041364043E-17  -8.13367963396898E-06
     -1.42333944895228E-13
      3.30000000000000E-02
      4.95000000000000E-01   4.95000000000000E-01   0.00000000000000E+00   0.00000000000000E+00   8.14222078194711E-06
      1.71658666933537E-17   8.14222078196428E-06   1.41954151557439E-13   0.00000000000000E+00   0.00000000000000E+00
      0.00000000000000E+00   0.00000000000000E+00  -8.14222078194891E-06  -1.53522066505605E-17  -8.14222078196427E-06
     -1.43563563881202E-13
      3.40000000000000E-02
      5.10000000000000E-01   5.10000000000000E-01   0.00000000000000E+00   0.00000000000000E+00   8.15073246508427E-06
      1.64045773750698E-17   8.15073246510067E-06   1.43176031042784E-13   0.00000000000000E+00   0.00000000000000E+00
      0.00000000000000E+00   0.00000000000000E+00  -8.15073246511523E-06   1.45524757616032E-17  -8.15073246510067E-06
     -1.44785443061494E-13
      3.50000000000000E-02
      5.25000000000000E-01   5.25000000000000E-01   0.00000000000000E+00   0.00000000000000E+00   8.15921623237624E-06
      1.55740903941885E-17   8.15921623239181E-06   1.44390325734937E-13   0.00000000000000E+00   0.00000000000000E+00
      0.00000000000000E+00   0.00000000000000E+00  -8.15921623238578E-06  -6.02992951022747E-18  -8.15921623239181E-06
     -1.45999737449973E-13
      3.60000000000000E-02
      5.40000000000000E-01   5.40000000000000E-01   0.00000000000000E+00   0.00000000000000E+00   8.16767383425312E-06
      1.47763668996414E-17   8.16767383426790E-06   1.45597185473428E-13   0.00000000000000E+00   0.00000000000000E+00
      0.00000000000000E+00   0.00000000000000E+00  -8.16767383429259E-06   2.47832620006286E-17  -8.16767383426780E-06
     -1.47206596886061E-13
      3.70000000000000E-02
      5.55000000000000E-01   5.55000000000000E-01   0.00000000000000E+00   0.00000000000000E+00   8.17610721772015E-06
      1.40985994133940E-17   8.17610721773425E-06   1.46796755162133E-13   0.00000000000000E+00   0.00000000000000E+00
      0.00000000000000E+00   0.00000000000000E+00  -8.17610721775131E-06   1.71861105190081E-17  -8.17610721773412E-06
     -1.48406166273531E-13
      3.80000000000000E-02
      5.70000000000000E-01   5.70000000000000E-01   0.00000000000000E+00   0.00000000000000E+00   8.18451843233849E-06
      1.35862829967513E-17   8.18451843235208E-06   1.47989174996578E-13   0.00000000000000E+00   0.00000000000000E+00
      0.00000000000000E+00   0.00000000000000E+00  -8.18451843235151E-06  -5.50884962204120E-19  -8.18451843235206E-06
     -1.49598585807811E-13
      3.90000000000000E-02
      5.85000000000000E-01   5.85000000000000E-01   0.00000000000000E+00   0.00000000000000E+00   8.19290948162131E-06
      1.32340549969259E-17   8.19290948163455E-06   1.49174580679481E-13   0.00000000000000E+00   0.00000000000000E+00
      0.00000000000000E+00   0.00000000000000E+00  -8.19290948166419E-06   2.97000865345485E-17  -8.19290948163449E-06
     -1.50783991191488E-13
      4.00000000000000E-02
      6.00000000000000E-01   6.00000000000000E-01   0.00000000000000E+00   0.00000000000000E+00   8.20128217079189E-06
      1.29917905417021E-17   8.20128217080489E-06   1.50353103623583E-13   0.00000000000000E+00   0.00000000000000E+00
      0.00000000000000E+00   0.00000000000000E+00  -8.20128217081055E-06   5.55738857901104E-18  -8.20128217080499E-06
     -1.51962513837219E-13
      4.10000000000000E-02
      6.15000000000000E-01   6.15000000000000E-01   0.00000000000000E+00   0.00000000000000E+00   8.20963799990334E-06
      1.27872871547755E-17   8.20963799991613E-06   1.51524871140834E-13   0.00000000000000E+00   0.00000000000000E+00
      0.00000000000000E+00   0.00000000000000E+00  -8.20963799993196E-06   1.58939144042446E-17  -8.20963799991606E-06
     -1.53134281056855E-13
      4.20000000000000E-02
      6.30000000000000E-01   6.30000000000000E-01   0.00000000000000E+00   0.00000000000000E+00   8.21797813429626E-06
      1.25527847749304E-17   8.21797813430881E-06   1.52690006617692E-13   0.00000000000000E+00   0.00000000000000E+00
      0.00000000000000E+00   0.00000000000000E+00  -8.21797813430081E-06  -8.00864761760765E-18  -8.21797813430882E-06
     -1.54299416236768E-13
      4.30000000000000E-02
      6.45000000000000E-01   6.45000000000000E-01   0.00000000000000E+00   0.00000000000000E+00   8.22630345871899E-06
      1.22463737035864E-17   8.22630345873123E-06   1.53848629677139E-13   0.00000000000000E+00   0.00000000000000E+00
      0.00000000000000E+00   0.00000000000000E+00  -8.22630345870835E-06  -2.28778717871547E-17  -8.22630345873122E-06
     -1.55458038999887E-13
      4.40000000000000E-02
      6.60000000000000E-01   6.60000000000000E-01   0.00000000000000E+00   0.00000000000000E+00   8.23461469517559E-06
      1.18617883317165E-17   8.23461469518745E-06   1.55000856329011E-13   0.00000000000000E+00   0.00000000000000E+00
      0.00000000000000E+00   0.00000000000000E+00  -8.23461469519064E-06   3.21763958533653E-18  -8.23461469518742E-06
     -1.56610265355978E-13
      4.50000000000000E-02
      6.75000000000000E-01   6.75000000000000E-01   0.00000000000000E+00   0.00000000000000E+00   8.24291254595818E-06
      1.14260827835938E-17   8.24291254596961E-06   1.56146799110816E-13   0.00000000000000E+00   0.00000000000000E+00
      0.00000000000000E+00   0.00000000000000E+00  -8.24291254596235E-06  -7.25551437819609E-18  -8.24291254596961E-06
     -1.57756207842493E-13
      4.60000000000000E-02
      6.90000000000001E-01   6.90000000000001E-01   0.00000000000000E+00   0.00000000000000E+00   8.25119782028735E-06
      1.07997627412315E-17   8.25119782029815E-06   1.57286567221215E-13   0.00000000000000E+00   0.00000000000000E+00
      0.00000000000000E+00   0.00000000000000E+00  -8.25119782028448E-06  -1.36991124671523E-17  -8.25119782029818E-06
     -1.58895975658038E-13
      4.70000000000000E-02
      7.05000000000001E-01   7.05000000000001E-01   0.00000000000000E+00   0.00000000000000E+00   8.25947150635483E-06
      1.04185548145310E-17   8.25947150636525E-06   1.58420266648120E-13   0.00000000000000E+00   0.00000000000000E+00
      0.00000000000000E+00   0.00000000000000E+00  -8.25947150639458E-06   2.92470150937516E-17  -8.25947150636534E-06
     -1.60029674790433E-13
      4.80000000000000E-02
      7.20000000000001E-01   7.20000000000001E-01   0.00000000000000E+00   0.00000000000000E+00   8.26773476806436E-06
      1.00310942398978E-17   8.26773476807439E-06   1.59548000292735E-13   0.00000000000000E+00   0.00000000000000E+00
      0.00000000000000E+00   0.00000000000000E+00  -8.26773476808452E-06   1.01291536567288E-17  -8.26773476807439E-06
     -1.61157408140821E-13
      4.90000000000000E-02
      7.35000000000001E-01   7.35000000000001E-01   0.00000000000000E+00   0.00000000000000E+00   8.27598890436067E-06
      9.86102956075012E-18   8.27598890437053E-06   1.60669868088556E-13   0.00000000000000E+00   0.00000000000000E+00
      0.00000000000000E+00   0.00000000000000E+00  -8.27598890438191E-06   1.13536667886669E-17  -8.27598890437056E-06
     -1.62279275642606E-13
      5.00000000000000E-02
      7.50000000000001E-01   7.50000000000001E-01   0.00000000000000E+00   0.00000000000000E+00   8.28423526226153E-06
      9.79025928537159E-18   8.28423526227132E-06   1.61785967116045E-13   0.00000000000000E+00   0.00000000000000E+00
      0.00000000000000E+00   0.00000000000000E+00  -8.28423526228857E-06   1.71965227351250E-17  -8.28423526227137E-06
     -1.63395374376168E-13
      5.10000000000000E-02
      7.65000000000001E-01   7.65000000000001E-01   0.00000000000000E+00   0.00000000000000E+00   8.29247515151776E-06
      9.78363130574840E-18   8.29247515152754E-06   1.62896391711686E-13   0.00000000000000E+00   0.00000000000000E+00
      0.00000000000000E+00   0.00000000000000E+00  -8.29247515152030E-06  -7.28013569950397E-18  -8.29247515152757E-06
     -1.64505798677903E-13
      5.20000000000000E-02
      7.80000000000001E-01   7.80000000000001E-01   0.00000000000000E+00   0.00000000000000E+00   8.30070978630763E-06
      9.79699581415996E-18   8.30070978631742E-06   1.64001233570853E-13   0.00000000000000E+00   0.00000000000000E+00
      0.00000000000000E+00   0.00000000000000E+00  -8.30070978631225E-06  -5.14705383567162E-18  -8.30070978631740E-06
     -1.65610640243100E-13
      5.30000000000000E-02
      7.95000000000001E-01   7.95000000000001E-01   0.00000000000000E+00   0.00000000000000E+00   8.30894027411641E-06
      9.78887838877772E-18   8.30894027412620E-06   1.65100581844206E-13   0.00000000000000E+00   0.00000000000000E+00
      0.00000000000000E+00   0.00000000000000E+00  -8.30894027416789E-06   4.17342521936731E-17  -8.30894027412615E-06
     -1.66709988222349E-13
      5.40000000000000E-02
      8.10000000000001E-01   8.10000000000001E-01   0.00000000000000E+00   0.00000000000000E+00   8.31716765428955E-06
      9.73219304263836E-18   8.31716765429928E-06   1.66194523227827E-13   0.00000000000000E+00   0.00000000000000E+00
      0.00000000000000E+00   0.00000000000000E+00  -8.31716765430797E-06   8.65908445449142E-18  -8.31716765429931E-06
     -1.67803929311650E-13
      5.50000000000000E-02
      8.25000000000001E-01   8.25000000000001E-01   0.00000000000000E+00   0.00000000000000E+00   8.32539297394934E-06
      9.62075733373696E-18   8.32539297395896E-06   1.67283142047904E-13   0.00000000000000E+00   0.00000000000000E+00
      0.00000000000000E+00   0.00000000000000E+00  -8.32539297398517E-06   2.61942072317286E-17  -8.32539297395897E-06
     -1.68892547837118E-13
      5.60000000000000E-02
      8.40000000000001E-01   8.40000000000001E-01   0.00000000000000E+00   0.00000000000000E+00   8.33361737763244E-06
      9.46695774790727E-18   8.33361737764190E-06   1.68366520341077E-13   0.00000000000000E+00   0.00000000000000E+00
      0.00000000000000E+00   0.00000000000000E+00  -8.33361737766285E-06   2.09137574179299E-17  -8.33361737764194E-06
     -1.69975925835315E-13
      5.70000000000000E-02
      8.55000000000001E-01   8.55000000000001E-01   0.00000000000000E+00   0.00000000000000E+00   8.34184218331816E-06
      9.29887179583037E-18   8.34184218332745E-06   1.69444737931656E-13   0.00000000000000E+00   0.00000000000000E+00
      0.00000000000000E+00   0.00000000000000E+00  -8.34184218334689E-06   1.94698517738297E-17  -8.34184218332742E-06
     -1.71054143130470E-13
      5.80000000000000E-02
      8.70000000000001E-01   8.70000000000001E-01   0.00000000000000E+00   0.00000000000000E+00   8.35006892246499E-06
      9.14772005356724E-18   8.35006892247414E-06   1.70517872506736E-13   0.00000000000000E+00   0.00000000000000E+00
      0.00000000000000E+00   0.00000000000000E+00  -8.35006892249739E-06   2.34132302763746E-17  -8.35006892247397E-06
     -1.72127277409578E-13
      5.90000000000000E-02
      8.85000000000001E-01   8.85000000000001E-01   0.00000000000000E+00   0.00000000000000E+00   8.35829933317517E-06
      9.04088715329686E-18   8.35829933318421E-06   1.71585999689742E-13   0.00000000000000E+00   0.00000000000000E+00
      0.00000000000000E+00   0.00000000000000E+00  -8.35829933319202E-06   7.84901682662378E-18  -8.35829933318417E-06
     -1.73195404295961E-13
      6.00000000000000E-02
      9.00000000000001E-01   9.00000000000001E-01   0.00000000000000E+00   0.00000000000000E+00   8.36653530942910E-06
      8.99473431645360E-18   8.36653530943809E-06   1.72649193112472E-13   0.00000000000000E+00   0.00000000000000E+00
      0.00000000000000E+00   0.00000000000000E+00  -8.36653530947812E-06   4.00891515478738E-17  -8.36653530943803E-06
     -1.74258597421306E-13
      6.10000000000000E-02
      9.15000000000001E-01   9.15000000000001E-01   0.00000000000000E+00   0.00000000000000E+00   8.37477882103706E-06
      9.00902500306558E-18   8.37477882104607E-06   1.73707524485308E-13   0.00000000000000E+00   0.00000000000000E+00
      0.00000000000000E+00   0.00000000000000E+00  -8.37477882105572E-06   9.69447856795424E-18  -8.37477882104603E-06
     -1.75316928495885E-13
      6.20000000000000E-02
      9.30000000000001E-01   9.30000000000001E-01   0.00000000000000E+00   0.00000000000000E+00   8.38303182556684E-06
      9.07184904751642E-18   8.38303182557591E-06   1.74761063664967E-13   0.00000000000000E+00   0.00000000000000E+00
      0.00000000000000E+00   0.00000000000000E+00  -8.38303182558630E-06   1.04142421933444E-17  -8.38303182557589E-06
     -1.76370467376299E-13
      6.30000000000000E-02
      9.45000000000001E-01   9.45000000000001E-01   0.00000000000000E+00   0.00000000000000E+00   8.39129619407805E-06
      9.15812187182865E-18   8.39129619408721E-06   1.75809878719212E-13   0.00000000000000E+00   0.00000000000000E+00
      0.00000000000000E+00   0.00000000000000E+00  -8.39129619411650E-06   2.93417713812140E-17  -8.39129619408716E-06
     -1.77419282130208E-13
      6.40000000000000E-02
      9.60000000000001E-01   9.60000000000001E-01   0.00000000000000E+00   0.00000000000000E+00   8.39957366765989E-06
      9.24131103577679E-18   8.39957366766913E-06   1.76854035988106E-13   0.00000000000000E+00   0.00000000000000E+00
      0.00000000000000E+00   0.00000000000000E+00  -8.39957366771124E-06   4.20758125079178E-17  -8.39957366766916E-06
     -1.78463439097559E-13
      6.50000000000000E-02
      9.75000000000001E-01   9.75000000000001E-01   0.00000000000000E+00   0.00000000000000E+00   8.40786585312959E-06
      9.29008255372433E-18   8.40786585313888E-06   1.77893600141631E-13   0.00000000000000E+00   0.00000000000000E+00
      0.00000000000000E+00   0.00000000000000E+00  -8.40786585314437E-06   5.50094173177170E-18  -8.40786585313887E-06
     -1.79503002948243E-13
      6.60000000000000E-02
      9.90000000000001E-01   9.90000000000001E-01   0.00000000000000E+00   0.00000000000000E+00   8.41617426003829E-06
      9.16617341164793E-18   8.41617426004746E-06   1.78928634233812E-13   0.00000000000000E+00   0.00000000000000E+00
      0.00000000000000E+00   0.00000000000000E+00  -8.41617426008875E-06   4.13244312920516E-17  -8.41617426004742E-06
     -1.80538036736195E-13
      6.70000000000000E-02
      1.00500000000000E+00   1.00500000000000E+00   0.00000000000000E+00   0.00000000000000E+00   8.42450034714211E-06
      9.14363622875582E-18   8.42450034715126E-06   1.79959199754327E-13   0.00000000000000E+00   0.00000000000000E+00
      0.00000000000000E+00   0.00000000000000E+00  -8.42450034720706E-06   5.57836605567372E-17  -8.42450034715128E-06
     -1.81568601950992E-13
      6.80000000000000E-02
      1.02000000000000E+00   1.02000000000000E+00   0.00000000000000E+00   0.00000000000000E+00   8.43284559656721E-06
      8.98551519805162E-18   8.43284559657620E-06   1.80985356677495E-13   0.00000000000000E+00   0.00000000000000E+00
      0.00000000000000E+00   0.00000000000000E+00  -8.43284559660639E-06   3.02489032765797E-17  -8.43284559657614E-06
     -1.82594758566866E-13
      6.90000000000000E-02