DF-ISE text

Info {
  version   = 1.0
  type      = xyplot
  datasets  = [
    "frequency"
    "v(g)" "v(b)" "a(g,g)" "c(g,g)" "a(g,b)"
    "c(g,b)" "a(b,g)" "c(b,g)" "a(b,b)" "c(b,b)" ]
  functions = [
    Frequency
    Voltage Voltage Admittance Capacitance Admittance
    Capacitance Admittance Capacitance Admittance Capacitance ]
}

Data {
      1.00000000000000E+00
      1.00000000000000E+01   0.00000000000000E+00  -3.21405841119086E+09   2.99815487992195E-16  -4.33257832955242E-03
     -2.99815487985257E-16  -4.33257832955211E-03  -2.99815487986749E-16  -3.21405841119086E+09   2.99815487989682E-16
      1.80472176682717E+00
      1.00000000000000E+01   0.00000000000000E+00  -3.21405841119086E+09   2.99815487992809E-16  -4.33257832955242E-03
     -2.99815487985275E-16  -4.33257832955211E-03  -2.99815487986765E-16  -3.21405841119086E+09   2.99815487989094E-16
      3.25702065565978E+00
      1.00000000000000E+01   0.00000000000000E+00  -3.21405841119086E+09   2.99815487993498E-16  -4.33257832955242E-03
     -2.99815487985281E-16  -4.33257832955211E-03  -2.99815487986770E-16  -3.21405841119086E+09   2.99815487989796E-16
      5.87801607227491E+00
      1.00000000000000E+01   0.00000000000000E+00  -3.21405841119086E+09   2.99815487992513E-16  -4.33257832955242E-03
     -2.99815487985293E-16  -4.33257832955211E-03  -2.99815487986783E-16  -3.21405841119086E+09   2.99815487989149E-16
      1.06081835513945E+01
      1.00000000000000E+01   0.00000000000000E+00  -3.21405841119086E+09   2.99815487991531E-16  -4.33257832955242E-03
     -2.99815487985312E-16  -4.33257832955211E-03  -2.99815487986802E-16  -3.21405841119086E+09   2.99815487989343E-16
      1.91448197616996E+01
      1.00000000000000E+01   0.00000000000000E+00  -3.21405841119086E+09   2.99815487991678E-16  -4.33257832955242E-03
     -2.99815487985285E-16  -4.33257832955211E-03  -2.99815487986776E-16  -3.21405841119086E+09   2.99815487989591E-16
      3.45510729459222E+01
      1.00000000000000E+01   0.00000000000000E+00  -3.21405841119086E+09   2.99815487992817E-16  -4.33257832955242E-03
     -2.99815487985281E-16  -4.33257832955211E-03  -2.99815487986773E-16  -3.21405841119086E+09   2.99815487989486E-16
      6.23550734127392E+01
      1.00000000000000E+01   0.00000000000000E+00  -3.21405841119086E+09   2.99815487994400E-16  -4.33257832955242E-03
     -2.99815487985268E-16  -4.33257832955211E-03  -2.99815487986759E-16  -3.21405841119086E+09   2.99815487989500E-16
      1.12533558260076E+02
      1.00000000000000E+01   0.00000000000000E+00  -3.21405841119086E+09   2.99815487993078E-16  -4.33257832955242E-03
     -2.99815487985297E-16  -4.33257832955211E-03  -2.99815487986788E-16  -3.21405841119086E+09   2.99815487989553E-16
      2.03091762090474E+02
      1.00000000000000E+01   0.00000000000000E+00  -3.21405841119086E+09   2.99815487993820E-16  -4.33257832955242E-03
     -2.99815487985272E-16  -4.33257832955211E-03  -2.99815487986766E-16  -3.21405841119086E+09   2.99815487989476E-16
      3.66524123707963E+02
      1.00000000000000E+01   0.00000000000000E+00  -3.21405841119086E+09   2.99815487991376E-16  -4.33257832955242E-03
     -2.99815487985281E-16  -4.33257832955211E-03  -2.99815487986772E-16  -3.21405841119086E+09   2.99815487989406E-16
      6.61474064123015E+02
      1.00000000000000E+01   0.00000000000000E+00  -3.21405841119086E+09   2.99815487992764E-16  -4.33257832955242E-03
     -2.99815487985274E-16  -4.33257832955211E-03  -2.99815487986774E-16  -3.21405841119086E+09   2.99815487989510E-16
      1.19377664171444E+03
      1.00000000000000E+01   0.00000000000000E+00  -3.21405841119086E+09   2.99815487993590E-16  -4.33257832955242E-03
     -2.99815487985258E-16  -4.33257832955211E-03  -2.99815487986756E-16  -3.21405841119086E+09   2.99815487989786E-16
      2.15443469003188E+03
      1.00000000000000E+01   0.00000000000000E+00  -3.21405841119086E+09   2.99815487993223E-16  -4.33257832955242E-03
     -2.99815487985288E-16  -4.33257832955211E-03  -2.99815487986787E-16  -3.21405841119086E+09   2.99815487989656E-16
      3.88815518030809E+03
      1.00000000000000E+01   0.00000000000000E+00  -3.21405841119086E+09   2.99815487992257E-16  -4.33257832955243E-03
     -2.99815487985283E-16  -4.33257832955212E-03  -2.99815487986784E-16  -3.21405841119086E+09   2.99815487989306E-16
      7.01703828670382E+03
      1.00000000000000E+01   0.00000000000000E+00  -3.21405841119086E+09   2.99815487989124E-16  -4.33257832955234E-03
     -2.99815487985305E-16  -4.33257832955202E-03  -2.99815487986849E-16  -3.21405841119086E+09   2.99815487989256E-16
      1.26638017346740E+04
      1.00000000000000E+01   0.00000000000000E+00  -3.21405841119086E+09   2.99815487990584E-16  -4.33257832955241E-03
     -2.99815487985343E-16  -4.33257832955211E-03  -2.99815487986790E-16  -3.21405841119086E+09   2.99815487989407E-16
      2.28546386413499E+04
      1.00000000000000E+01   0.00000000000000E+00  -3.21405841119086E+09   2.99815487991084E-16  -4.33257832955229E-03
     -2.99815487985164E-16  -4.33257832955194E-03  -2.99815487986936E-16  -3.21405841119086E+09   2.99815487988531E-16
      4.12462638290135E+04
      1.00000000000000E+01   0.00000000000000E+00  -3.21405841119086E+09   2.99815487990108E-16  -4.33257832955244E-03
     -2.99815487985917E-16  -4.33257832955217E-03  -2.99815487987012E-16  -3.21405841119086E+09   2.99815487987882E-16
      7.44380301325169E+04
      1.00000000000000E+01   0.00000000000000E+00  -3.21405841119086E+09   2.99815487983474E-16  -4.33257832955262E-03
     -2.99815487984526E-16  -4.33257832955181E-03  -2.99815487988496E-16  -3.21405841119086E+09   2.99815487984460E-16
      1.34339933259890E+05
      1.00000000000000E+01   0.00000000000000E+00  -3.21405841119086E+09   2.99815487990335E-16  -4.33257832955210E-03
     -2.99815487985294E-16  -4.33257832955173E-03  -2.99815487987076E-16  -3.21405841119086E+09   2.99815487987372E-16
      2.42446201708233E+05
      1.00000000000000E+01   0.00000000000000E+00  -3.21405841119086E+09   2.99815487992908E-16  -4.33257832955151E-03
     -2.99815487985270E-16  -4.33257832955120E-03  -2.99815487986632E-16  -3.21405841119086E+09   2.99815487989064E-16
      4.37547937507419E+05
      1.00000000000000E+01   0.00000000000000E+00  -3.21405841119086E+09   2.99815487996498E-16  -4.33257832955294E-03
     -2.99815487985395E-16  -4.33257832955275E-03  -2.99815487986359E-16  -3.21405841119086E+09   2.99815487991002E-16
      7.89652286849972E+05
      1.00000000000000E+01   0.00000000000000E+00  -3.21405841119086E+09   2.99815487992542E-16  -4.33257832955127E-03
     -2.99815487984591E-16  -4.33257832955063E-03  -2.99815487987748E-16  -3.21405841119086E+09   2.99815487989298E-16
      1.42510267030300E+06
      1.00000000000000E+01   0.00000000000000E+00  -3.21405841119086E+09   2.99815487992579E-16  -4.33257832955226E-03
     -2.99815487985324E-16  -4.33257832955185E-03  -2.99815487987057E-16  -3.21405841119086E+09   2.99815487989776E-16
      2.57191380905934E+06
      1.00000000000000E+01   0.00000000000000E+00  -3.21405841119086E+09   2.99815487987784E-16  -4.33257832955261E-03
     -2.99815487985702E-16  -4.33257832955221E-03  -2.99815487987581E-16  -3.21405841119086E+09   2.99815487988067E-16
      4.64158883361278E+06
      1.00000000000000E+01   0.00000000000000E+00  -3.21405841119086E+09   2.99815487995984E-16  -4.33257832955265E-03
     -2.99815487987451E-16  -4.33257832955241E-03  -2.99815487988319E-16  -3.21405841119086E+09   2.99815487992291E-16
      8.37677640068293E+06
      1.00000000000000E+01   0.00000000000000E+00  -3.21405841119086E+09   2.99815488003664E-16  -4.33257832955544E-03
     -2.99815487991744E-16  -4.33257832955499E-03  -2.99815487993975E-16  -3.21405841119086E+09   2.99815487997163E-16
      1.51177507061567E+07
      1.00000000000000E+01   0.00000000000000E+00  -3.21405841119086E+09   2.99815488018292E-16  -4.33257832956476E-03
     -2.99815488007155E-16  -4.33257832956439E-03  -2.99815488008990E-16  -3.21405841119086E+09   2.99815488012866E-16
      2.72833337648676E+07
      1.00000000000000E+01   0.00000000000000E+00  -3.21405841119086E+09   2.99815488067407E-16  -4.33257832958985E-03
     -2.99815488056864E-16  -4.33257832958949E-03  -2.99815488058597E-16  -3.21405841119086E+09   2.99815488061495E-16
      4.92388263170673E+07
      1.00000000000000E+01   0.00000000000000E+00  -3.21405841119086E+09   2.99815488227355E-16  -4.33257832967816E-03
     -2.99815488218733E-16  -4.33257832967776E-03  -2.99815488220717E-16  -3.21405841119086E+09   2.99815488223552E-16
      8.88623816274339E+07
      1.00000000000000E+01   0.00000000000000E+00  -3.21405841119086E+09   2.99815488751207E-16  -4.33257832996662E-03
     -2.99815488746825E-16  -4.33257832996632E-03  -2.99815488748232E-16  -3.21405841119086E+09   2.99815488751557E-16
      1.60371874375133E+08
      1.00000000000000E+01   0.00000000000000E+00  -3.21405841119086E+09   2.99815490476575E-16  -4.33257833090370E-03
     -2.99815490470602E-16  -4.33257833090360E-03  -2.99815490471795E-16  -3.21405841119086E+09   2.99815490473770E-16
      2.89426612471675E+08
      1.00000000000000E+01   0.00000000000000E+00  -3.21405841119086E+09   2.99815496129138E-16  -4.33257833395270E-03
     -2.99815496122723E-16  -4.33257833395248E-03  -2.99815496124040E-16  -3.21405841119086E+09   2.99815496126364E-16
      5.22334507426686E+08
      1.00000000000000E+01   0.00000000000000E+00  -3.21405841119086E+09   2.99815514829805E-16  -4.33257834388289E-03
     -2.99815514821407E-16  -4.33257834388264E-03  -2.99815514822953E-16  -3.21405841119086E+09   2.99815514825402E-16
      9.42668455117888E+08
      1.00000000000000E+01   0.00000000000000E+00  -3.21405841119086E+09   2.99815577002460E-16  -4.33257837622788E-03
     -2.99815576992259E-16  -4.33257837622747E-03  -2.99815576994139E-16  -3.21405841119086E+09   2.99815576997472E-16
      1.70125427985259E+09
      1.00000000000000E+01   0.00000000000000E+00  -3.21405841119086E+09   2.99815781327646E-16  -4.33257848173187E-03
     -2.99815781318512E-16  -4.33257848173150E-03  -2.99815781320195E-16  -3.21405841119086E+09   2.99815781323270E-16
      3.07029062975785E+09
      1.00000000000000E+01   0.00000000000000E+00  -3.21405841119086E+09   2.99816437175056E-16  -4.33257882691661E-03
     -2.99816437167543E-16  -4.33257882691635E-03  -2.99816437168658E-16  -3.21405841119086E+09   2.99816437171734E-16
      5.54102033000949E+09
      1.00000000000000E+01   0.00000000000000E+00  -3.21405841119086E+09   2.99818469838856E-16  -4.33257996645868E-03
     -2.99818469832681E-16  -4.33257996645839E-03  -2.99818469834094E-16  -3.21405841119086E+09   2.99818469837289E-16
      1.00000000000000E+10
      1.00000000000000E+01   0.00000000000000E+00  -3.21405841119086E+09   2.99824241298113E-16  -4.33258381722675E-03
     -2.99824241292089E-16  -4.33258381722661E-03  -2.99824241293139E-16  -3.21405841119086E+09   2.99824241296381E-16
}
