DF-ISE text

Info {
  version   = 1.0
  type      = xyplot
  datasets  = [
    "frequency"
    "v(g)" "v(b)" "a(g,g)" "c(g,g)" "a(g,b)"
    "c(g,b)" "a(b,g)" "c(b,g)" "a(b,b)" "c(b,b)" ]
  functions = [
    Frequency
    Voltage Voltage Admittance Capacitance Admittance
    Capacitance Admittance Capacitance Admittance Capacitance ]
}

Data {
      1.00000000000000E+00
      1.00000000000000E+01   0.00000000000000E+00  -3.21405841119110E+09  -1.71494334454827E-15  -4.09294816405747E-03
      1.71494333805471E-15  -4.09294816405950E-03   1.71494334449952E-15  -3.21405841119110E+09  -1.71494333783585E-15
      1.80472176682717E+00
      1.00000000000000E+01   0.00000000000000E+00  -3.21405841119110E+09  -1.71494334454835E-15  -4.09294816405747E-03
      1.71494333801657E-15  -4.09294816405951E-03   1.71494334449910E-15  -3.21405841119110E+09  -1.71494333793930E-15
      3.25702065565978E+00
      1.00000000000000E+01   0.00000000000000E+00  -3.21405841119110E+09  -1.71494334454433E-15  -4.09294816405747E-03
      1.71494333820141E-15  -4.09294816405951E-03   1.71494334449681E-15  -3.21405841119110E+09  -1.71494333817041E-15
      5.87801607227491E+00
      1.00000000000000E+01   0.00000000000000E+00  -3.21405841119110E+09  -1.71494334454066E-15  -4.09294816405747E-03
      1.71494333801359E-15  -4.09294816405951E-03   1.71494334449179E-15  -3.21405841119110E+09  -1.71494333809691E-15
      1.06081835513945E+01
      1.00000000000000E+01   0.00000000000000E+00  -3.21405841119110E+09  -1.71494334452143E-15  -4.09294816405746E-03
      1.71494333799939E-15  -4.09294816405950E-03   1.71494334447387E-15  -3.21405841119110E+09  -1.71494333802656E-15
      1.91448197616996E+01
      1.00000000000000E+01   0.00000000000000E+00  -3.21405841119110E+09  -1.71494334446349E-15  -4.09294816405748E-03
      1.71494333798229E-15  -4.09294816405951E-03   1.71494334441548E-15  -3.21405841119110E+09  -1.71494333815548E-15
      3.45510729459222E+01
      1.00000000000000E+01   0.00000000000000E+00  -3.21405841119110E+09  -1.71494334427031E-15  -4.09294816405748E-03
      1.71494333747925E-15  -4.09294816405951E-03   1.71494334422565E-15  -3.21405841119110E+09  -1.71494333736519E-15
      6.23550734127392E+01
      1.00000000000000E+01   0.00000000000000E+00  -3.21405841119110E+09  -1.71494334365144E-15  -4.09294816405743E-03
      1.71494333656170E-15  -4.09294816405948E-03   1.71494334360259E-15  -3.21405841119110E+09  -1.71494333666093E-15
      1.12533558260076E+02
      1.00000000000000E+01   0.00000000000000E+00  -3.21405841119110E+09  -1.71494334162451E-15  -4.09294816405732E-03
      1.71494333508124E-15  -4.09294816405936E-03   1.71494334157678E-15  -3.21405841119110E+09  -1.71494333503495E-15
      2.03091762090474E+02
      1.00000000000000E+01   0.00000000000000E+00  -3.21405841119110E+09  -1.71494333502360E-15  -4.09294816405724E-03
      1.71494332884471E-15  -4.09294816405927E-03   1.71494333497437E-15  -3.21405841119110E+09  -1.71494332886738E-15
      3.66524123707963E+02
      1.00000000000000E+01   0.00000000000000E+00  -3.21405841119110E+09  -1.71494331353137E-15  -4.09294816405701E-03
      1.71494330682552E-15  -4.09294816405905E-03   1.71494331347858E-15  -3.21405841119110E+09  -1.71494330675576E-15
      6.61474064123015E+02
      1.00000000000000E+01   0.00000000000000E+00  -3.21405841119110E+09  -1.71494324353929E-15  -4.09294816405578E-03
      1.71494323731618E-15  -4.09294816405780E-03   1.71494324349730E-15  -3.21405841119110E+09  -1.71494323733760E-15
      1.19377664171444E+03
      1.00000000000000E+01   0.00000000000000E+00  -3.21405841119110E+09  -1.71494301553792E-15  -4.09294816405122E-03
      1.71494301157771E-15  -4.09294816405320E-03   1.71494301549720E-15  -3.21405841119110E+09  -1.71494301137653E-15
      2.15443469003188E+03
      1.00000000000000E+01   0.00000000000000E+00  -3.21405841119110E+09  -1.71494227292922E-15  -4.09294816403625E-03
      1.71494227026631E-15  -4.09294816403821E-03   1.71494227286190E-15  -3.21405841119110E+09  -1.71494227025095E-15
      3.88815518030809E+03
      1.00000000000000E+01   0.00000000000000E+00  -3.21405841119110E+09  -1.71493985427419E-15  -4.09294816399098E-03
      1.71493984425505E-15  -4.09294816399311E-03   1.71493985425472E-15  -3.21405841119110E+09  -1.71493984416359E-15
      7.01703828670382E+03
      1.00000000000000E+01   0.00000000000000E+00  -3.21405841119110E+09  -1.71493197676412E-15  -4.09294816384294E-03
      1.71493196693708E-15  -4.09294816384504E-03   1.71493197671985E-15  -3.21405841119110E+09  -1.71493196682251E-15
      1.26638017346740E+04
      1.00000000000000E+01   0.00000000000000E+00  -3.21405841119110E+09  -1.71490631983840E-15  -4.09294816335541E-03
      1.71490631332655E-15  -4.09294816335745E-03   1.71490631978119E-15  -3.21405841119110E+09  -1.71490631324218E-15
      2.28546386413499E+04
      1.00000000000000E+01   0.00000000000000E+00  -3.21405841119110E+09  -1.71482275917161E-15  -4.09294816177303E-03
      1.71482275156470E-15  -4.09294816177500E-03   1.71482275914793E-15  -3.21405841119110E+09  -1.71482275163097E-15
      4.12462638290135E+04
      1.00000000000000E+01   0.00000000000000E+00  -3.21405841119110E+09  -1.71455064639662E-15  -4.09294815661227E-03
      1.71455063601669E-15  -4.09294815661419E-03   1.71455064634725E-15  -3.21405841119110E+09  -1.71455063605982E-15
      7.44380301325169E+04
      1.00000000000000E+01   0.00000000000000E+00  -3.21405841119110E+09  -1.71366485759918E-15  -4.09294813981261E-03
      1.71366484219324E-15  -4.09294813981429E-03   1.71366485755481E-15  -3.21405841119110E+09  -1.71366484201116E-15
      1.34339933259890E+05
      1.00000000000000E+01   0.00000000000000E+00  -3.21405841119110E+09  -1.71078499472669E-15  -4.09294808521254E-03
      1.71078498239336E-15  -4.09294808521472E-03   1.71078499475057E-15  -3.21405841119110E+09  -1.71078498237426E-15
      2.42446201708233E+05
      1.00000000000000E+01   0.00000000000000E+00  -3.21405841119110E+09  -1.70145971639937E-15  -4.09294790839472E-03
      1.70145971194351E-15  -4.09294790839669E-03   1.70145971647082E-15  -3.21405841119110E+09  -1.70145971206823E-15
      4.37547937507419E+05
      1.00000000000000E+01   0.00000000000000E+00  -3.21405841119110E+09  -1.67165362267213E-15  -4.09294734323269E-03
      1.67165361159556E-15  -4.09294734323481E-03   1.67165362264548E-15  -3.21405841119110E+09  -1.67165361140548E-15
      7.89652286849972E+05
      1.00000000000000E+01   0.00000000000000E+00  -3.21405841119110E+09  -1.58021035674142E-15  -4.09294560934628E-03
      1.58021035670543E-15  -4.09294560934779E-03   1.58021035677696E-15  -3.21405841119110E+09  -1.58021035661000E-15
      1.42510267030300E+06
      1.00000000000000E+01   0.00000000000000E+00  -3.21405841119110E+09  -1.33157526695143E-15  -4.09294089479141E-03
      1.33157526429424E-15  -4.09294089479317E-03   1.33157526693349E-15  -3.21405841119110E+09  -1.33157526439921E-15
      2.57191380905934E+06
      1.00000000000000E+01   0.00000000000000E+00  -3.21405841119110E+09  -8.30405286005845E-16  -4.09293139084539E-03
      8.30405279343778E-16  -4.09293139084718E-03   8.30405286049696E-16  -3.21405841119110E+09  -8.30405279353188E-16
      4.64158883361278E+06
      1.00000000000000E+01   0.00000000000000E+00  -3.21405841119110E+09  -2.37317703150383E-16  -4.09292013922352E-03
      2.37317704988483E-16  -4.09292013922459E-03   2.37317703162504E-16  -3.21405841119110E+09  -2.37317704981789E-16
      8.37677640068293E+06
      1.00000000000000E+01   0.00000000000000E+00  -3.21405841119110E+09   1.45793631864992E-16  -4.09291285318752E-03
     -1.45793631618718E-16  -4.09291285318887E-03  -1.45793631898261E-16  -3.21405841119110E+09   1.45793631649818E-16
