DF-ISE text

Info {
  version   = 1.0
  type      = xyplot
  datasets  = [
    "time"
    "Cathode OuterVoltage" "Cathode InnerVoltage" "Cathode QuasiFermiPotential" "Cathode DisplacementCurrent" "Cathode eCurrent"
    "Cathode hCurrent" "Cathode TotalCurrent" "Cathode Charge" "Anode OuterVoltage" "Anode InnerVoltage"
    "Anode QuasiFermiPotential" "Anode DisplacementCurrent" "Anode eCurrent" "Anode hCurrent" "Anode TotalCurrent"
    "Anode Charge" ]
  functions = [
    Time
    OuterVoltage InnerVoltage QuasiFermiPotential DisplacementCurrent eCurrent
    hCurrent TotalCurrent Charge OuterVoltage InnerVoltage
    QuasiFermiPotential DisplacementCurrent eCurrent hCurrent TotalCurrent
    Charge ]
}

Data {
      0.00000000000000E+00
      0.00000000000000E+00   0.00000000000000E+00   0.00000000000000E+00   0.00000000000000E+00   1.00398211724758E-20
      3.06801910048053E-21   1.31078402729563E-20  -1.97415265539117E-29   0.00000000000000E+00   0.00000000000000E+00
      0.00000000000000E+00   0.00000000000000E+00  -1.56377755373916E-23  -1.82451281318802E-19  -1.82466919094339E-19
      3.87088755959053E-31
      0.00000000000000E+00
      9.99993306710219E-01   9.99993306700657E-01   0.00000000000000E+00   0.00000000000000E+00   6.19614982274170E-08
      3.36569272187510E-08   9.56184254461680E-08   1.91996022955690E-28   0.00000000000000E+00   9.56184254461680E-12
      0.00000000000000E+00   0.00000000000000E+00  -2.57331431634693E-13  -9.56181681147304E-08  -9.56184254461620E-08
      0.00000000000000E+00
      1.00000000000000E-13
      9.99993306710840E-01   9.99993306701278E-01   0.00000000000000E+00   1.19868902833060E-15   6.19614973777942E-08
      3.36569279678451E-08   9.56184265443283E-08  -6.59986328910185E-29   0.00000000000000E+00   9.56184658420933E-12
      0.00000000000000E+00   5.10929795565542E-18  -2.57335698176063E-13  -9.56181681017426E-08  -9.56184254323315E-08
     -3.87088755959053E-31
      2.30000000000000E-13
      9.99993306709545E-01   9.99993306699984E-01   0.00000000000000E+00   1.59133478812687E-15   6.19614970815167E-08
      3.36569277450933E-08   9.56184264179448E-08   5.90310352837555E-29   0.00000000000000E+00   9.56184154765498E-12
      0.00000000000000E+00  -1.13898640855241E-18  -2.57330334261419E-13  -9.56181680873870E-08  -9.56184254188603E-08
      0.00000000000000E+00
      3.99000000000000E-13
      9.99993306710507E-01   9.99993306700945E-01   0.00000000000000E+00   1.07353687410239E-15   6.19614977614718E-08
      3.36569276518390E-08   9.56184264868476E-08   5.53536921021445E-29   0.00000000000000E+00   9.56184273710522E-12
      0.00000000000000E+00  -2.05663188852651E-18  -2.57329387688247E-13  -9.56181680812301E-08  -9.56184254126744E-08
     -3.87088755959053E-31
      6.18700000000000E-13
      9.99993306710058E-01   9.99993306700497E-01   0.00000000000000E+00   1.87703515399454E-15   6.19614970203051E-08
      3.36569275842142E-08   9.56184264815544E-08  -1.09546117936412E-28   0.00000000000000E+00   9.56184225692230E-12
      0.00000000000000E+00   1.38068316784374E-17  -2.57345163907787E-13  -9.56181680801690E-08  -9.56184254115261E-08
     -3.87088755959053E-31
      9.04310000000000E-13
      9.99993306710024E-01   9.99993306700462E-01   0.00000000000000E+00   2.89997673728195E-15   6.19614960402863E-08
      3.36569275421244E-08   9.56184264823875E-08   8.76756032247254E-29   0.00000000000000E+00   9.56184249117038E-12
      0.00000000000000E+00  -4.65035424545444E-18  -2.57326863493121E-13  -9.56181680725915E-08  -9.56184254041054E-08
      7.74177511918105E-31
      1.27560300000000E-12
      9.99993306710150E-01   9.99993306700588E-01   0.00000000000000E+00   3.40747300070253E-15   6.19614955505924E-08
      3.36569275242576E-08   9.56184264823230E-08  -7.12243310964657E-29   0.00000000000000E+00   9.56184273895164E-12
      0.00000000000000E+00   1.95021266318413E-19  -2.57331596358983E-13  -9.56181680696213E-08  -9.56184254010226E-08
      0.00000000000000E+00
      1.75828390000000E-12
      9.99993306710213E-01   9.99993306700652E-01   0.00000000000000E+00  -8.74167523540223E-16   6.19614998025991E-08
      3.36569275538938E-08   9.56184264823254E-08   5.80633133938579E-31   0.00000000000000E+00   9.56184270352679E-12
      0.00000000000000E+00   2.95512951178100E-21  -2.57331280834592E-13  -9.56181680643125E-08  -9.56184253955904E-08
     -7.74177511918105E-31
      2.25828390000000E-12
      9.99993306709889E-01   9.99993306700327E-01   0.00000000000000E+00   4.24331551873030E-15   6.19614947248651E-08
      3.36569275141426E-08   9.56184264823232E-08   9.67721889897631E-30   0.00000000000000E+00   9.56184201891223E-12
      0.00000000000000E+00   1.05961093860761E-17  -2.57342008663879E-13  -9.56181680749266E-08  -9.56184254063391E-08
      3.87088755959053E-31
      2.75828390000000E-12
      9.99993306710622E-01   9.99993306701060E-01   0.00000000000000E+00   3.08290575188983E-15   6.19614958752670E-08
      3.36569275241493E-08   9.56184264823221E-08  -1.87738046640140E-29   0.00000000000000E+00   9.56184292908371E-12
      0.00000000000000E+00  -2.07773255012818E-18  -2.57329387688247E-13  -9.56181680660996E-08  -9.56184253975650E-08
     -3.87088755959053E-31
      3.25828390000000E-12
      9.99993306710732E-01   9.99993306701170E-01   0.00000000000000E+00   3.49082147810206E-15   6.19614954707647E-08
      3.36569275207358E-08   9.56184264823221E-08  -1.41674484681013E-28   0.00000000000000E+00   9.56184309421126E-12
      0.00000000000000E+00   5.65399226607545E-18  -2.57336960273626E-13  -9.56181680748812E-08  -9.56184254061875E-08
      0.00000000000000E+00
      3.75828390000000E-12
      9.99993306710400E-01   9.99993306700838E-01   0.00000000000000E+00  -6.12348008575198E-16   6.19614995429225E-08
      3.36569275517473E-08   9.56184264823218E-08  -1.68383608842188E-28   0.00000000000000E+00   9.56184298571872E-12
      0.00000000000000E+00   1.33126683545229E-17  -2.57344532859006E-13  -9.56181680677540E-08  -9.56184253989742E-08
      0.00000000000000E+00
      4.25828390000000E-12
      9.99993306709753E-01   9.99993306700191E-01   0.00000000000000E+00   1.85490595178964E-15   6.19614970953999E-08
      3.36569275320165E-08   9.56184264823223E-08  -3.34831773904580E-29   0.00000000000000E+00   9.56184203116133E-12
      0.00000000000000E+00   6.52770827693290E-18  -2.57337906846799E-13  -9.56181680697016E-08  -9.56184254010807E-08
     -3.87088755959053E-31
      4.75828390000000E-12
      9.99993306710607E-01   9.99993306701045E-01   0.00000000000000E+00   2.59914873509576E-15   6.19614963558106E-08
      3.36569275273639E-08   9.56184264823233E-08   1.21932958127102E-29   0.00000000000000E+00   9.56184258135492E-12
      0.00000000000000E+00  -2.19227406126317E-18  -2.57329387688247E-13  -9.56181680765740E-08  -9.56184254081540E-08
      3.87088755959053E-31
      5.00000000000000E-12
      9.99993306710749E-01   9.99993306701188E-01   0.00000000000000E+00  -3.87397415220436E-16   6.19614993192158E-08
      3.36569275505047E-08   9.56184264823231E-08   7.54823074120153E-30   0.00000000000000E+00   9.56184350007430E-12
      0.00000000000000E+00  -6.61026180721230E-18  -2.57324970346776E-13  -9.56181680786891E-08  -9.56184254102697E-08
     -3.87088755959053E-31
      5.50000000000000E-12
      9.99993306709899E-01   9.99993306700337E-01   0.00000000000000E+00   2.86959831696711E-15   6.19614960879305E-08
      3.36569275247950E-08   9.56184264823238E-08   1.27158656332549E-28   0.00000000000000E+00   9.56184225321448E-12
      0.00000000000000E+00   7.74917908992818E-19  -2.57332227407764E-13  -9.56181680806367E-08  -9.56184254120892E-08
     -3.87088755959053E-31
      6.00000000000000E-12
      9.99993306710031E-01   9.99993306700470E-01   0.00000000000000E+00   1.90832752155710E-15   6.19614970423917E-08
      3.36569275316047E-08   9.56184264823239E-08   3.29025442565195E-30   0.00000000000000E+00   9.56184243442625E-12
      0.00000000000000E+00   4.34557843218093E-18  -2.57335698176063E-13  -9.56181680611748E-08  -9.56184253925274E-08
     -3.87088755959053E-31
      6.50000000000000E-12
      9.99993306710161E-01   9.99993306700599E-01   0.00000000000000E+00   1.98722747487240E-16   6.19614987383353E-08
      3.36569275452658E-08   9.56184264823238E-08   4.35474850453934E-29   0.00000000000000E+00   9.56184243850901E-12
      0.00000000000000E+00   4.52229863327726E-18  -2.57336013700454E-13  -9.56181680585081E-08  -9.56184253899995E-08
      3.87088755959053E-31
      7.00000000000000E-12
      9.99993306710038E-01   9.99993306700476E-01   0.00000000000000E+00   1.50056288714207E-15   6.19614974465785E-08
      3.36569275351822E-08   9.56184264823236E-08  -2.14834259557274E-29   0.00000000000000E+00   9.56184221565784E-12
      0.00000000000000E+00  -3.33103581084685E-18  -2.57328125590684E-13  -9.56181680628571E-08  -9.56184253943137E-08
      0.00000000000000E+00
      7.50000000000000E-12
      9.99993306710463E-01   9.99993306700901E-01   0.00000000000000E+00   3.83661568141977E-15   6.19614951277897E-08
      3.36569275179192E-08   9.56184264823246E-08   1.87738046640140E-29   0.00000000000000E+00   9.56184256120808E-12
      0.00000000000000E+00  -1.34929139732825E-17  -2.57318028810178E-13  -9.56181680689128E-08  -9.56184254004345E-08
      7.74177511918105E-31
      8.00000000000000E-12
      9.99993306710471E-01   9.99993306700909E-01   0.00000000000000E+00  -2.10596181362229E-17   6.19614989563627E-08
      3.36569275470214E-08   9.56184264823244E-08  -9.67721889897631E-30   0.00000000000000E+00   9.56184299075292E-12
      0.00000000000000E+00  -7.30679101757683E-18  -2.57324023773603E-13  -9.56181680600334E-08  -9.56184253913640E-08
      3.87088755959053E-31
      8.50000000000000E-12
      9.99993306709991E-01   9.99993306700429E-01   0.00000000000000E+00  -8.84858680951532E-16   6.19614998142735E-08
      3.36569275529095E-08   9.56184264823244E-08   9.30948458081521E-29   0.00000000000000E+00   9.56184226168092E-12
      0.00000000000000E+00   7.76364367122269E-18  -2.57339168944362E-13  -9.56181680657889E-08  -9.56184253971942E-08
     -7.74177511918105E-31
      9.00000000000000E-12
      9.99993306710103E-01   9.99993306700542E-01   0.00000000000000E+00   1.57019589993761E-15   6.19614973777941E-08
      3.36569275343341E-08   9.56184264823241E-08  -8.24499050192782E-29   0.00000000000000E+00   9.56184205356919E-12
      0.00000000000000E+00   1.10973408267761E-17  -2.57342639712661E-13  -9.56181680763855E-08  -9.56184254079279E-08
     -7.74177511918105E-31
      9.50000000000000E-12
      9.99993306710100E-01   9.99993306700538E-01   0.00000000000000E+00   3.20109024645449E-15   6.19614957591540E-08
      3.36569275220796E-08   9.56184264823239E-08  -3.67734318161100E-30   0.00000000000000E+00   9.56184239415841E-12
      0.00000000000000E+00   1.44918859999375E-18  -2.57332858456546E-13  -9.56181680680960E-08  -9.56184253995053E-08
      3.87088755959053E-31
      1.00000000000000E-11
      9.99993306710113E-01   9.99993306700551E-01   0.00000000000000E+00   1.98170972963013E-15   6.19614969691901E-08
      3.36569275314231E-08   9.56184264823230E-08   1.08384851668535E-28   0.00000000000000E+00   9.56184270536638E-12
      0.00000000000000E+00  -1.15340778619908E-17  -2.57319921956523E-13  -9.56181680578938E-08  -9.56184253893499E-08
     -3.87088755959053E-31
      1.05000000000000E-11
      9.99993306710091E-01   9.99993306700529E-01   0.00000000000000E+00   4.54630914696778E-16   6.19614984843382E-08
      3.36569275433531E-08   9.56184264823221E-08   1.02578520329149E-29   0.00000000000000E+00   9.56184244696138E-12
      0.00000000000000E+00   1.00773199828967E-17  -2.57341377615098E-13  -9.56181680606442E-08  -9.56184253919445E-08
      0.00000000000000E+00
      1.10000000000000E-11
      9.99993306709915E-01   9.99993306700353E-01   0.00000000000000E+00   3.79011098110746E-15   6.19614951744874E-08
      3.36569275177237E-08   9.56184264823220E-08   3.98701418637824E-29   0.00000000000000E+00   9.56184215535523E-12
      0.00000000000000E+00   2.65507153685086E-18  -2.57334120554109E-13  -9.56181680626930E-08  -9.56184253941585E-08
     -3.87088755959053E-31
      1.15000000000000E-11
      9.99993306710557E-01   9.99993306700996E-01   0.00000000000000E+00   1.57228384583008E-15   6.19614973746389E-08
      3.36569275353986E-08   9.56184264823214E-08  -1.37416508365464E-29   0.00000000000000E+00   9.56184286206510E-12
      0.00000000000000E+00   6.43836313321414E-18  -2.57337906846799E-13  -9.56181680587874E-08  -9.56184253902558E-08
     -3.87088755959053E-31
      1.20000000000000E-11
      9.99993306709906E-01   9.99993306700344E-01   0.00000000000000E+00   4.34475593841494E-15   6.19614946238973E-08
      3.36569275136679E-08   9.56184264823212E-08   1.41093851547075E-28   0.00000000000000E+00   9.56184244449039E-12
      0.00000000000000E+00  -7.58457319168424E-18  -2.57324023773603E-13  -9.56181680544733E-08  -9.56184253860817E-08
      0.00000000000000E+00
      1.25000000000000E-11
      9.99993306710306E-01   9.99993306700744E-01   0.00000000000000E+00   3.75603569377338E-15   6.19614952079329E-08
      3.36569275183520E-08   9.56184264823205E-08   1.76125383961369E-29   0.00000000000000E+00   9.56184278331490E-12
      0.00000000000000E+00  -5.28988920359759E-18  -2.57326232444339E-13  -9.56181680412206E-08  -9.56184253727429E-08
      0.00000000000000E+00
      1.30000000000000E-11
      9.99993306710463E-01   9.99993306700902E-01   0.00000000000000E+00   2.18308172480249E-15   6.19614967685165E-08
      3.36569275307216E-08   9.56184264823199E-08   4.58700175811477E-29   0.00000000000000E+00   9.56184292602643E-12
      0.00000000000000E+00  -3.54981908347345E-18  -2.57327810066293E-13  -9.56181680420897E-08  -9.56184253734496E-08
      0.00000000000000E+00
      1.35000000000000E-11
      9.99993306710346E-01   9.99993306700784E-01   0.00000000000000E+00   9.34208479725318E-16   6.19614980085274E-08
      3.36569275395835E-08   9.56184264823194E-08   1.22513591261040E-28   0.00000000000000E+00   9.56184273068071E-12
      0.00000000000000E+00   6.81974765482522E-18  -2.57338222371190E-13  -9.56181680484386E-08  -9.56184253798412E-08
     -7.74177511918105E-31
      1.40000000000000E-11
      9.99993306709788E-01   9.99993306700226E-01   0.00000000000000E+00   1.80912670985029E-15   6.19614971405199E-08
      3.36569275326727E-08   9.56184264823192E-08  -6.01923015516327E-29   0.00000000000000E+00   9.56184223226641E-12
      0.00000000000000E+00   5.12343418922640E-19  -2.57331911883373E-13  -9.56181680441734E-08  -9.56184253755730E-08
      3.87088755959053E-31
      1.45000000000000E-11
      9.99993306710537E-01   9.99993306700975E-01   0.00000000000000E+00   2.89983236797235E-15   6.19614960573246E-08
      3.36569275251615E-08   9.56184264823185E-08   4.83860944948816E-29   0.00000000000000E+00   9.56184256270965E-12
      0.00000000000000E+00   6.50346238976899E-18  -2.57337906846799E-13  -9.56181680559846E-08  -9.56184253873880E-08
     -3.87088755959053E-31
      1.50000000000000E-11
      9.99993306710537E-01   9.99993306700975E-01   0.00000000000000E+00  -4.55872708505714E-16   6.19614993880001E-08
      3.36569275501906E-08   9.56184264823180E-08  -5.47730589682059E-29   0.00000000000000E+00   9.56184299508057E-12
      0.00000000000000E+00   3.60537897458675E-18  -2.57335067127282E-13  -9.56181680629583E-08  -9.56184253944200E-08
      7.74177511918105E-31
      1.55000000000000E-11
      9.99993306709482E-01   9.99993306699920E-01   0.00000000000000E+00   2.88646521117718E-15   6.19614960718387E-08
      3.36569275240132E-08   9.56184264823171E-08   1.79996271520959E-29   0.00000000000000E+00   9.56184196073066E-12
      0.00000000000000E+00  -2.17714068750021E-17  -2.57309825176017E-13  -9.56181680606791E-08  -9.56184253922757E-08
      3.87088755959053E-31
      1.60000000000000E-11
      9.99993306710211E-01   9.99993306700649E-01   0.00000000000000E+00  -3.05784376509981E-16   6.19614992390726E-08
      3.36569275490283E-08   9.56184264823165E-08   1.20965236237204E-28   0.00000000000000E+00   9.56184242354736E-12
      0.00000000000000E+00   2.49464775171716E-18  -2.57333805029718E-13  -9.56181680527037E-08  -9.56184253840141E-08
     -3.87088755959053E-31
      1.65000000000000E-11
      9.99993306709918E-01   9.99993306700356E-01   0.00000000000000E+00   2.75171118446976E-17   6.19614989090341E-08
      3.36569275457649E-08   9.56184264823160E-08   1.24642579418815E-28   0.00000000000000E+00   9.56184211884783E-12
      0.00000000000000E+00  -1.68217723202785E-19  -2.57331280834592E-13  -9.56181680634050E-08  -9.56184253948541E-08
      0.00000000000000E+00
      1.70000000000000E-11
      9.99993306710035E-01   9.99993306700473E-01   0.00000000000000E+00   4.18738628827240E-15   6.19614947800818E-08
      3.36569275148477E-08   9.56184264823158E-08   7.54823074120153E-30   0.00000000000000E+00   9.56184211711507E-12
      0.00000000000000E+00   6.33635067995073E-18  -2.57337906846799E-13  -9.56181680695480E-08  -9.56184254011185E-08
      0.00000000000000E+00
      1.75000000000000E-11
      9.99993306710551E-01   9.99993306700989E-01   0.00000000000000E+00   1.97605081214820E-15   6.19614969739230E-08
      3.36569275323411E-08   9.56184264823149E-08  -6.27083784653665E-29   0.00000000000000E+00   9.56184293732293E-12
      0.00000000000000E+00   1.72679104692618E-17  -2.57348634676086E-13  -9.56181680626616E-08  -9.56184253940284E-08
      3.87088755959053E-31
      1.80000000000000E-11
      9.99993306710128E-01   9.99993306700566E-01   0.00000000000000E+00   2.87329523583072E-15   6.19614960841442E-08
      3.36569275248753E-08   9.56184264823148E-08  -5.03215382746768E-30   0.00000000000000E+00   9.56184261213304E-12
      0.00000000000000E+00  -3.21381567354621E-18  -2.57328125590684E-13  -9.56181680626686E-08  -9.56184253940080E-08
     -3.87088755959053E-31
      1.85000000000000E-11
      9.99993306710663E-01   9.99993306701101E-01   0.00000000000000E+00   1.77100975582434E-15   6.19614971771206E-08
      3.36569275341840E-08   9.56184264823144E-08  -1.41287395925054E-29   0.00000000000000E+00   9.56184287549806E-12
      0.00000000000000E+00   6.77730439119403E-18  -2.57338222371190E-13  -9.56181680700087E-08  -9.56184254014538E-08
     -7.74177511918105E-31
      1.90000000000000E-11
      9.99993306709698E-01   9.99993306700135E-01   0.00000000000000E+00   3.79142718887942E-15   6.19614951732253E-08
      3.36569275176608E-08   9.56184264823133E-08   1.14191183007920E-29   0.00000000000000E+00   9.56184238819546E-12
      0.00000000000000E+00  -3.78991039521130E-18  -2.57327494541902E-13  -9.56181680569061E-08  -9.56184253881905E-08
      3.87088755959053E-31
      1.95000000000000E-11
      9.99993306710410E-01   9.99993306700848E-01   0.00000000000000E+00   2.36304907750703E-15   6.19614965902453E-08
      3.36569275290184E-08   9.56184264823127E-08  -3.25154555005604E-29   0.00000000000000E+00   9.56184269448678E-12
      0.00000000000000E+00  -7.08593396985424E-18  -2.57324339297994E-13  -9.56181680518137E-08  -9.56184253832389E-08
      0.00000000000000E+00
      2.00000000000000E-11
      9.99993306710203E-01   9.99993306700641E-01   0.00000000000000E+00   2.03364170674614E-15   6.19614969171285E-08
      3.36569275315418E-08   9.56184264823121E-08   8.01273724835239E-29   0.00000000000000E+00   9.56184267170949E-12
      0.00000000000000E+00  -3.65770723284215E-18  -2.57327810066293E-13  -9.56181680533599E-08  -9.56184253848277E-08
     -7.74177511918105E-31
      2.05000000000000E-11
      9.99993306710042E-01   9.99993306700480E-01   0.00000000000000E+00   2.94124382480454E-15   6.19614960166220E-08
      3.36569275244461E-08   9.56184264823118E-08  -9.01916801384592E-29   0.00000000000000E+00   9.56184245771074E-12
      0.00000000000000E+00   3.34748775994168E-18  -2.57334751602891E-13  -9.56181680508853E-08  -9.56184253822894E-08
      3.87088755959053E-31
      2.10000000000000E-11
      9.99993306710470E-01   9.99993306700908E-01   0.00000000000000E+00  -5.68704443918447E-16   6.19614994993802E-08
      3.36569275516356E-08   9.56184264823113E-08  -1.79996271520959E-29   0.00000000000000E+00   9.56184275257848E-12
      0.00000000000000E+00  -4.23029381830320E-18  -2.57327179017511E-13  -9.56181680547770E-08  -9.56184253861863E-08
      3.87088755959053E-31
      2.15000000000000E-11
      9.99993306710315E-01   9.99993306700753E-01   0.00000000000000E+00   3.19122346648821E-15   6.19614957679887E-08
      3.36569275230988E-08   9.56184264823110E-08   3.73540649500486E-29   0.00000000000000E+00   9.56184237664178E-12
      0.00000000000000E+00  -3.40996023470828E-18  -2.57328125590684E-13  -9.56181680789823E-08  -9.56184254105179E-08
      3.87088755959053E-31
      2.20000000000000E-11
      9.99993306710686E-01   9.99993306701123E-01   0.00000000000000E+00   4.02661312387940E-15   6.19614949387907E-08
      3.36569275169070E-08   9.56184264823107E-08   5.72891358819398E-29   0.00000000000000E+00   9.56184298517601E-12
      0.00000000000000E+00   5.50881072789725E-19  -2.57331911883373E-13  -9.56181680808392E-08  -9.56184254122002E-08
      0.00000000000000E+00
      2.25000000000000E-11
      9.99993306710232E-01   9.99993306700670E-01   0.00000000000000E+00   3.95272740321307E-15   6.19614950126233E-08
      3.36569275169593E-08   9.56184264823100E-08  -1.28319922600426E-28   0.00000000000000E+00   9.56184296028981E-12
      0.00000000000000E+00  -5.41113592087628E-18  -2.57325916919948E-13  -9.56181680668325E-08  -9.56184253981606E-08
      3.87088755959053E-31
      2.30000000000000E-11
      9.99993306710500E-01   9.99993306700938E-01   0.00000000000000E+00   1.68375739680662E-15   6.19614972638899E-08
      3.36569275346622E-08   9.56184264823094E-08   7.47081299000971E-29   0.00000000000000E+00   9.56184294036734E-12
      0.00000000000000E+00   4.28445391122672E-18  -2.57335698176063E-13  -9.56181680643893E-08  -9.56184253958030E-08
      0.00000000000000E+00
      2.35000000000000E-11
      9.99993306709895E-01   9.99993306700333E-01   0.00000000000000E+00  -1.42685559754130E-16   6.19614990772086E-08
      3.36569275477858E-08   9.56184264823088E-08   2.82574791850108E-29   0.00000000000000E+00   9.56184243078414E-12
      0.00000000000000E+00   1.96220253953076E-17  -2.57350843346822E-13  -9.56181680600334E-08  -9.56184253912547E-08
      0.00000000000000E+00
      2.40000000000000E-11
      9.99993306709644E-01   9.99993306700082E-01   0.00000000000000E+00   3.67855226710032E-15   6.19614952852363E-08
      3.36569275185195E-08   9.56184264823081E-08   9.73528221237017E-29   0.00000000000000E+00   9.56184187756406E-12
      0.00000000000000E+00  -1.98652100882303E-18  -2.57329387688247E-13  -9.56181680588676E-08  -9.56184253902418E-08
      3.87088755959053E-31
      2.45000000000000E-11
      9.99993306710265E-01   9.99993306700703E-01   0.00000000000000E+00   3.74236937763915E-15   6.19614952211849E-08
      3.36569275187533E-08   9.56184264823076E-08   9.50302895879474E-29   0.00000000000000E+00   9.56184260046098E-12
      0.00000000000000E+00   2.41940427865111E-19  -2.57331596358983E-13  -9.56181680495206E-08  -9.56184253808750E-08
      0.00000000000000E+00
      2.50000000000000E-11
      9.99993306710481E-01   9.99993306700920E-01   0.00000000000000E+00   3.64061920508101E-15   6.19614953221527E-08
      3.36569275195352E-08   9.56184264823071E-08   1.25803845686692E-29   0.00000000000000E+00   9.56184294602986E-12
      0.00000000000000E+00  -7.49648959448221E-18  -2.57324023773603E-13  -9.56181680514891E-08  -9.56184253830094E-08
      0.00000000000000E+00
      2.55000000000000E-11
      9.99993306710405E-01   9.99993306700843E-01   0.00000000000000E+00  -2.10942985684115E-16   6.19614991447307E-08
      3.36569275485187E-08   9.56184264823065E-08   7.25791417423224E-29   0.00000000000000E+00   9.56184295415345E-12
      0.00000000000000E+00   8.28585480331040E-18  -2.57339484468753E-13  -9.56181680512343E-08  -9.56184253824329E-08
      0.00000000000000E+00
      2.60000000000000E-11
      9.99993306710216E-01   9.99993306700654E-01   0.00000000000000E+00   3.41844225135421E-15   6.19614955430198E-08
      3.36569275208440E-08   9.56184264823060E-08  -3.50315324142943E-29   0.00000000000000E+00   9.56184235994408E-12
      0.00000000000000E+00   2.26112339444993E-18  -2.57333805029718E-13  -9.56181680705009E-08  -9.56184254020448E-08
      0.00000000000000E+00
      2.65000000000000E-11
      9.99993306710822E-01   9.99993306701260E-01   0.00000000000000E+00   2.65501547579744E-15   6.19614962996473E-08
      3.36569275276431E-08   9.56184264823059E-08  -7.02566092065680E-29   0.00000000000000E+00   9.56184306130382E-12
      0.00000000000000E+00   1.41903245380628E-18  -2.57332858456546E-13  -9.56181680770033E-08  -9.56184254084427E-08
     -3.87088755959053E-31
      2.70000000000000E-11
      9.99993306709974E-01   9.99993306700412E-01   0.00000000000000E+00   1.14546308468052E-15   6.19614977987037E-08
      3.36569275381385E-08   9.56184264823053E-08  -1.08384851668535E-29   0.00000000000000E+00   9.56184270584549E-12
      0.00000000000000E+00   1.34363344760803E-18  -2.57332542932155E-13  -9.56181680666196E-08  -9.56184253978189E-08
      3.87088755959053E-31
      2.75000000000000E-11
      9.99993306709980E-01   9.99993306700418E-01   0.00000000000000E+00   1.71020883019240E-15   6.19614972380168E-08
      3.36569275340793E-08   9.56184264823050E-08  -6.89017985607114E-29   0.00000000000000E+00   9.56184225957124E-12
      0.00000000000000E+00  -6.58243865800782E-18  -2.57324970346776E-13  -9.56181680658588E-08  -9.56184253974115E-08
      3.87088755959053E-31
      2.80000000000000E-11
      9.99993306710573E-01   9.99993306701011E-01   0.00000000000000E+00   2.38571460979613E-15   6.19614965672120E-08
      3.36569275293778E-08   9.56184264823045E-08   7.62564849239333E-29   0.00000000000000E+00   9.56184264486759E-12
      0.00000000000000E+00   3.90802916838688E-18  -2.57335382651672E-13  -9.56181680794500E-08  -9.56184254109247E-08
      7.74177511918105E-31
      2.85000000000000E-11
      9.99993306710082E-01   9.99993306700520E-01   0.00000000000000E+00   1.92516220312735E-15   6.19614970250379E-08
      3.36569275321038E-08   9.56184264823039E-08   4.25797631554958E-29   0.00000000000000E+00   9.56184265455904E-12
      0.00000000000000E+00   3.44232840766480E-18  -2.57334751602891E-13  -9.56181680725357E-08  -9.56184254038450E-08
      7.74177511918105E-31
      2.90000000000000E-11
      9.99993306709839E-01   9.99993306700277E-01   0.00000000000000E+00   2.17407951895519E-15   6.19614967782978E-08
      3.36569275299258E-08   9.56184264823032E-08  -5.72891358819398E-29   0.00000000000000E+00   9.56184229271573E-12
      0.00000000000000E+00  -1.76326183828093E-18  -2.57329703212638E-13  -9.56181680628675E-08  -9.56184253943340E-08
      0.00000000000000E+00
      2.95000000000000E-11
      9.99993306710265E-01   9.99993306700703E-01   0.00000000000000E+00   2.42877501161443E-15   6.19614965249317E-08
      3.36569275285960E-08   9.56184264823027E-08   6.69663547809161E-29   0.00000000000000E+00   9.56184248755864E-12
      0.00000000000000E+00   1.52716254360285E-18  -2.57332858456546E-13  -9.56181680654015E-08  -9.56184253967328E-08
     -3.87088755959053E-31
      3.00000000000000E-11
      9.99993306709926E-01   9.99993306700364E-01   0.00000000000000E+00  -5.86247820846292E-16   6.19614995179961E-08
      3.36569275505536E-08   9.56184264823019E-08   1.10900928582269E-28   0.00000000000000E+00   9.56184256981413E-12
      0.00000000000000E+00   1.55151039137565E-17  -2.57346741529741E-13  -9.56181680612271E-08  -9.56184253924535E-08
      0.00000000000000E+00
      3.05000000000000E-11
      9.99993306710100E-01   9.99993306700538E-01   0.00000000000000E+00   2.48619772305209E-15   6.19614964678218E-08
      3.36569275282819E-08   9.56184264823014E-08   1.19997514347306E-29   0.00000000000000E+00   9.56184210379390E-12
      0.00000000000000E+00   1.01874201590345E-18  -2.57332542932155E-13  -9.56181680842841E-08  -9.56184254158083E-08
      0.00000000000000E+00
      3.10000000000000E-11
      9.99993306710037E-01   9.99993306700476E-01   0.00000000000000E+00   1.61143649498334E-15   6.19614973364605E-08
      3.36569275344039E-08   9.56184264823009E-08   5.41924258342674E-29   0.00000000000000E+00   9.56184249386696E-12
      0.00000000000000E+00  -6.18674508823443E-18  -2.57325285871167E-13  -9.56181680758236E-08  -9.56184254072962E-08
     -3.87088755959053E-31
      3.15000000000000E-11
      9.99993306710052E-01   9.99993306700490E-01   0.00000000000000E+00   3.75185783190209E-15   6.19614952120348E-08
      3.36569275184078E-08   9.56184264823004E-08   4.31603962894344E-29   0.00000000000000E+00   9.56184238227466E-12
      0.00000000000000E+00  -9.37971932206597E-18  -2.57322130627259E-13  -9.56181680775164E-08  -9.56184254090268E-08
      3.87088755959053E-31
      3.20000000000000E-11
      9.99993306710393E-01   9.99993306700831E-01   0.00000000000000E+00   3.00073675135760E-15   6.19614959569879E-08
      3.36569275245752E-08   9.56184264822998E-08  -9.13529464063364E-29   0.00000000000000E+00   9.56184282288379E-12
      0.00000000000000E+00  -1.15802884837131E-17  -2.57319921956523E-13  -9.56181680736282E-08  -9.56184254051304E-08
      0.00000000000000E+00
      3.25000000000000E-11
      9.99993306710563E-01   9.99993306701002E-01   0.00000000000000E+00   1.47128071618735E-15   6.19614974746602E-08
      3.36569275363585E-08   9.56184264822994E-08  -9.44496564540088E-29   0.00000000000000E+00   9.56184292912085E-12
      0.00000000000000E+00  -5.81441605120915E-18  -2.57325601395557E-13  -9.56181680829089E-08  -9.56184254143247E-08
      7.74177511918105E-31
      3.30000000000000E-11