DF-ISE text

Info {
  version   = 1.0
  type      = xyplot
  datasets  = [
    "time"
    "Cathode OuterVoltage" "Cathode InnerVoltage" "Cathode QuasiFermiPotential" "Cathode DisplacementCurrent" "Cathode eCurrent"
    "Cathode hCurrent" "Cathode TotalCurrent" "Cathode Charge" "Anode OuterVoltage" "Anode InnerVoltage"
    "Anode QuasiFermiPotential" "Anode DisplacementCurrent" "Anode eCurrent" "Anode hCurrent" "Anode TotalCurrent"
    "Anode Charge" ]
  functions = [
    Time
    OuterVoltage InnerVoltage QuasiFermiPotential DisplacementCurrent eCurrent
    hCurrent TotalCurrent Charge OuterVoltage InnerVoltage
    QuasiFermiPotential DisplacementCurrent eCurrent hCurrent TotalCurrent
    Charge ]
}

Data {
      0.00000000000000E+00
      0.00000000000000E+00   0.00000000000000E+00   0.00000000000000E+00   0.00000000000000E+00   9.13385626320009E-07
     -9.13385626319994E-07   1.47929290180382E-20  -1.97415265539117E-29   0.00000000000000E+00   0.00000000000000E+00
      0.00000000000000E+00   0.00000000000000E+00  -1.64806948719939E-22  -1.82302112145624E-19  -1.82466919094344E-19
      3.87088755959053E-31
      0.00000000000000E+00
      9.99929996596593E-01   9.99929996496588E-01   0.00000000000000E+00   0.00000000000000E+00   3.01725563934189E-07
      6.98323056161223E-07   1.00004862009541E-06  -7.58693961679743E-29   0.00000000000000E+00   1.00004862009541E-10
      0.00000000000000E+00   0.00000000000000E+00  -1.30910039648200E-11  -1.00003552909145E-06  -1.00004862009541E-06
      3.87088755959053E-31
      1.00000000000000E-13
      9.99929996596464E-01   9.99929996496459E-01   0.00000000000000E+00  -2.37968060515630E-14   3.01725573183486E-07
      6.98323053748462E-07   1.00004860313514E-06  -5.61278696140626E-29   0.00000000000000E+00   1.00004866049748E-10
      0.00000000000000E+00  -5.94496019350151E-18  -1.30909974874814E-11  -1.00003552906548E-06  -1.00004862006892E-06
      3.87088755959053E-31
      2.30000000000000E-13
      9.99929996596190E-01   9.99929996496185E-01   0.00000000000000E+00  -2.67749337291585E-14   3.01725573892469E-07
      6.98323055783102E-07   1.00004860290064E-06  -5.94181240397146E-29   0.00000000000000E+00   1.00004862580576E-10
      0.00000000000000E+00   7.98348111285641E-18  -1.30910116860790E-11  -1.00003552904521E-06  -1.00004862004891E-06
      3.87088755959053E-31
      3.99000000000000E-13
      9.99929996596594E-01   9.99929996496588E-01   0.00000000000000E+00  -2.27926918921799E-14   3.01725573977976E-07
      6.98323050014527E-07   1.00004860119981E-06   2.05157040658298E-29   0.00000000000000E+00   1.00004862230746E-10
      0.00000000000000E+00   1.63955424122167E-17  -1.30910202052376E-11  -1.00003552903586E-06  -1.00004862003967E-06
      3.87088755959053E-31
      6.18700000000000E-13
      9.99929996596144E-01   9.99929996496139E-01   0.00000000000000E+00  -1.97203643633660E-14   3.01725575168765E-07
      6.98323045691229E-07   1.00004860113963E-06  -5.82568577718374E-29   0.00000000000000E+00   1.00004861666342E-10
      0.00000000000000E+00   6.55216154160641E-18  -1.30910104239814E-11  -1.00003552902149E-06  -1.00004862002536E-06
      0.00000000000000E+00
      9.04310000000000E-13
      9.99929996596804E-01   9.99929996496799E-01   0.00000000000000E+00  -1.75185535634430E-14   3.01725574550653E-07
      6.98323044049937E-07   1.00004860108204E-06   3.92895087298438E-29   0.00000000000000E+00   1.00004861825164E-10
      0.00000000000000E+00  -7.86320215728918E-18  -1.30909962253839E-11  -1.00003552902438E-06  -1.00004862002847E-06
      3.87088755959053E-31
      1.27560300000000E-12
      9.99929996596488E-01   9.99929996496483E-01   0.00000000000000E+00  -1.74169258645858E-14   3.01725574604608E-07
      6.98323043877987E-07   1.00004860106567E-06   4.93538163847792E-29   0.00000000000000E+00   1.00004862010443E-10
      0.00000000000000E+00  -1.66607091211569E-18  -1.30910022203473E-11  -1.00003552901589E-06  -1.00004862001978E-06
      3.87088755959053E-31
      1.75828390000000E-12
      9.99929996596564E-01   9.99929996496559E-01   0.00000000000000E+00  -1.55429970183075E-14   3.01725572662555E-07
      6.98323043940372E-07   1.00004860105993E-06   2.20640590896660E-29   0.00000000000000E+00   1.00004861794720E-10
      0.00000000000000E+00  -1.32384272060866E-17  -1.30909908614692E-11  -1.00003552899511E-06  -1.00004861999921E-06
      3.87088755959053E-31
      2.25828390000000E-12
      9.99929996596469E-01   9.99929996496464E-01   0.00000000000000E+00  -1.80594973824761E-14   3.01725575133111E-07
      6.98323043984745E-07   1.00004860105836E-06   7.10307867184861E-29   0.00000000000000E+00   1.00004861964370E-10
      0.00000000000000E+00  -3.55099422269450E-18  -1.30910003272009E-11  -1.00003552894568E-06  -1.00004861994956E-06
      3.87088755959053E-31
      2.75828390000000E-12
      9.99929996597019E-01   9.99929996497014E-01   0.00000000000000E+00  -1.71727835023237E-14   3.01725574246803E-07
      6.98323043983862E-07   1.00004860105788E-06   5.74826802599193E-29   0.00000000000000E+00   1.00004861906710E-10
      0.00000000000000E+00   1.02340800986942E-17  -1.30910142102741E-11  -1.00003552892720E-06  -1.00004861993117E-06
      3.87088755959053E-31
      3.25828390000000E-12
      9.99929996596980E-01   9.99929996496975E-01   0.00000000000000E+00  -1.56101215236211E-14   3.01725572694738E-07
      6.98323043973109E-07   1.00004860105773E-06   1.20771691859224E-28   0.00000000000000E+00   1.00004862155954E-10
      0.00000000000000E+00  -7.04309323266299E-18  -1.30909968564326E-11  -1.00003552888998E-06  -1.00004861989388E-06
      3.87088755959053E-31
      3.75828390000000E-12
      9.99929996597265E-01   9.99929996497261E-01   0.00000000000000E+00  -1.76027533946453E-14   3.01725574670868E-07
      6.98323043989589E-07   1.00004860105770E-06  -1.09352573558432E-28   0.00000000000000E+00   1.00004862462463E-10
      0.00000000000000E+00   3.17356715522493E-18  -1.30910069532131E-11  -1.00003552884486E-06  -1.00004861984864E-06
      3.87088755959053E-31
      4.25828390000000E-12
      9.99929996596639E-01   9.99929996496634E-01   0.00000000000000E+00  -1.87775673095177E-14   3.01725575837361E-07
      6.98323043997959E-07   1.00004860105775E-06   6.75469879148547E-29   0.00000000000000E+00   1.00004861951952E-10
      0.00000000000000E+00   1.75123394272421E-18  -1.30910056911156E-11  -1.00003552879054E-06  -1.00004861979448E-06
      3.87088755959053E-31
      4.75828390000000E-12
      9.99929996596141E-01   9.99929996496136E-01   0.00000000000000E+00  -1.66197130760393E-14   3.01725573696529E-07
      6.98323043981021E-07   1.00004860105784E-06  -3.90959643518643E-29   0.00000000000000E+00   1.00004861300496E-10
      0.00000000000000E+00  -9.53660040807736E-19  -1.30910028513961E-11  -1.00003552872354E-06  -1.00004861972735E-06
      3.87088755959053E-31
      5.00000000000000E-12
      9.99929996596463E-01   9.99929996496459E-01   0.00000000000000E+00  -1.91872227775023E-14   3.01725576244072E-07
      6.98323044001038E-07   1.00004860105789E-06  -1.35481064585668E-30   0.00000000000000E+00   1.00004861583708E-10
      0.00000000000000E+00   1.88461915689807E-17  -1.30910227294327E-11  -1.00003552868251E-06  -1.00004861968639E-06
      3.87088755959053E-31
      5.50000000000000E-12
      9.99929996596789E-01   9.99929996496785E-01   0.00000000000000E+00  -1.88055704624005E-14   3.01725575865128E-07
      6.98323043998445E-07   1.00004860105800E-06  -1.51351703579990E-28   0.00000000000000E+00   1.00004861520525E-10
      0.00000000000000E+00  -5.57762549816574E-18  -1.30909984340546E-11  -1.00003552863732E-06  -1.00004861964133E-06
      0.00000000000000E+00
      6.00000000000000E-12
      9.99929996596617E-01   9.99929996496612E-01   0.00000000000000E+00  -1.90039887105778E-14   3.01725576062015E-07
      6.98323044000100E-07   1.00004860105813E-06  -5.65149583700217E-29   0.00000000000000E+00   1.00004861559881E-10
      0.00000000000000E+00   1.35998170794806E-18  -1.30910053755912E-11  -1.00003552857647E-06  -1.00004861958048E-06
      0.00000000000000E+00
      6.50000000000000E-12
      9.99929996596222E-01   9.99929996496217E-01   0.00000000000000E+00  -1.69967838689474E-14   3.01725574071371E-07
      6.98323043983657E-07   1.00004860105824E-06  -5.72891358819398E-29   0.00000000000000E+00   1.00004861241082E-10
      0.00000000000000E+00  -2.02114268405053E-17  -1.30909839199326E-11  -1.00003552850193E-06  -1.00004861950606E-06
      0.00000000000000E+00
      7.00000000000000E-12
      9.99929996596512E-01   9.99929996496507E-01   0.00000000000000E+00  -1.58436685541627E-14   3.01725572926965E-07
      6.98323043975070E-07   1.00004860105837E-06   3.46444436583352E-29   0.00000000000000E+00   1.00004861486184E-10
      0.00000000000000E+00   8.82114799996196E-18  -1.30910126326522E-11  -1.00003552842142E-06  -1.00004861942523E-06
      3.87088755959053E-31
      7.50000000000000E-12
      9.99929996597251E-01   9.99929996497247E-01   0.00000000000000E+00  -1.74881105450340E-14   3.01725574557910E-07
      6.98323043988693E-07   1.00004860105849E-06   1.18255614945491E-28   0.00000000000000E+00   1.00004862126542E-10
      0.00000000000000E+00   3.02909415687119E-19  -1.30910044290180E-11  -1.00003552835666E-06  -1.00004861936079E-06
      3.87088755959053E-31
      8.00000000000000E-12
      9.99929996596746E-01   9.99929996496741E-01   0.00000000000000E+00  -1.56716367438034E-14   3.01725572756265E-07
      6.98323043973985E-07   1.00004860105861E-06  -9.71592777457222E-29   0.00000000000000E+00   1.00004861875149E-10
      0.00000000000000E+00   4.25331272186866E-18  -1.30910082153107E-11  -1.00003552828632E-06  -1.00004861929028E-06
      3.87088755959053E-31
      8.50000000000000E-12
      9.99929996596982E-01   9.99929996496977E-01   0.00000000000000E+00  -1.89490411361245E-14   3.01725576008691E-07
      6.98323043999091E-07   1.00004860105874E-06   2.14834259557274E-29   0.00000000000000E+00   1.00004862031135E-10
      0.00000000000000E+00   1.35909689724044E-17  -1.30910173655180E-11  -1.00003552820651E-06  -1.00004861921029E-06
      3.87088755959053E-31
      9.00000000000000E-12
      9.99929996596786E-01   9.99929996496781E-01   0.00000000000000E+00  -1.77964750952369E-14   3.01725574865231E-07
      6.98323043990106E-07   1.00004860105886E-06  -3.07735560987447E-29   0.00000000000000E+00   1.00004861582865E-10
      0.00000000000000E+00   3.40582996597544E-18  -1.30910072687375E-11  -1.00003552814504E-06  -1.00004861914890E-06
      3.87088755959053E-31
      9.50000000000000E-12
      9.99929996596384E-01   9.99929996496379E-01   0.00000000000000E+00  -2.01153916983269E-14   3.01725577167297E-07
      6.98323044007080E-07   1.00004860105899E-06   3.67734318161100E-30   0.00000000000000E+00   1.00004861431048E-10
      0.00000000000000E+00   5.96887773294189E-18  -1.30910097929327E-11  -1.00003552805653E-06  -1.00004861906036E-06
      3.87088755959053E-31
      1.00000000000000E-11
      9.99929996596640E-01   9.99929996496635E-01   0.00000000000000E+00  -1.86651863955294E-14   3.01725575728506E-07
      6.98323043995785E-07   1.00004860105910E-06   9.01916801384592E-29   0.00000000000000E+00   1.00004861252015E-10
      0.00000000000000E+00   1.18676618676394E-17  -1.30910157878961E-11  -1.00003552799860E-06  -1.00004861900252E-06
      0.00000000000000E+00
      1.05000000000000E-11
      9.99929996596300E-01   9.99929996496295E-01   0.00000000000000E+00  -1.44535872449615E-14   3.01725571549701E-07
      6.98323043963112E-07   1.00004860105923E-06  -8.63207925788687E-29   0.00000000000000E+00   1.00004861216078E-10
      0.00000000000000E+00  -5.16162621391082E-18  -1.30909987495790E-11  -1.00003552791564E-06  -1.00004861891955E-06
      3.87088755959053E-31
      1.10000000000000E-11
      9.99929996596989E-01   9.99929996496984E-01   0.00000000000000E+00  -1.99719701039468E-14   3.01725577024680E-07
      6.98323044006630E-07   1.00004860105934E-06  -1.06449407888739E-29   0.00000000000000E+00   1.00004861961924E-10
      0.00000000000000E+00   6.05362600853122E-18  -1.30910097929327E-11  -1.00003552782182E-06  -1.00004861882556E-06
      0.00000000000000E+00
      1.15000000000000E-11
      9.99929996596179E-01   9.99929996496174E-01   0.00000000000000E+00  -1.54352700703896E-14   3.01725572524356E-07
      6.98323043970375E-07   1.00004860105946E-06   5.67085027480012E-29   0.00000000000000E+00   1.00004861067974E-10
      0.00000000000000E+00  -2.79475757102470E-18  -1.30910009582497E-11  -1.00003552774711E-06  -1.00004861875087E-06
      0.00000000000000E+00
      1.20000000000000E-11
      9.99929996597322E-01   9.99929996497317E-01   0.00000000000000E+00  -1.73708746470426E-14   3.01725574443690E-07
      6.98323043986765E-07   1.00004860105958E-06   1.29674733246283E-29   0.00000000000000E+00   1.00004861963116E-10
      0.00000000000000E+00  -8.67335696145464E-18  -1.30909952788107E-11  -1.00003552766764E-06  -1.00004861867160E-06
      3.87088755959053E-31
      1.25000000000000E-11
      9.99929996596623E-01   9.99929996496618E-01   0.00000000000000E+00  -1.84470899572146E-14   3.01725575513002E-07
      6.98323043993785E-07   1.00004860105970E-06   4.66441950930658E-29   0.00000000000000E+00   1.00004861708179E-10
      0.00000000000000E+00   2.32276635917813E-18  -1.30910060066400E-11  -1.00003552758550E-06  -1.00004861858918E-06
      3.87088755959053E-31
      1.30000000000000E-11
      9.99929996596773E-01   9.99929996496768E-01   0.00000000000000E+00  -1.90459746376745E-14   3.01725576107450E-07
      6.98323043998340E-07   1.00004860105982E-06   9.69657333677427E-29   0.00000000000000E+00   1.00004861413504E-10
      0.00000000000000E+00  -1.37200960350478E-18  -1.30910025358717E-11  -1.00003552751141E-06  -1.00004861851531E-06
      3.87088755959053E-31
      1.35000000000000E-11
      9.99929996596505E-01   9.99929996496500E-01   0.00000000000000E+00  -1.56885973208034E-14   3.01725572776775E-07
      6.98323043971754E-07   1.00004860105993E-06   1.17868526189531E-28   0.00000000000000E+00   1.00004861240446E-10
      0.00000000000000E+00  -2.33299698298500E-18  -1.30910015892985E-11  -1.00003552743141E-06  -1.00004861843533E-06
      0.00000000000000E+00
      1.40000000000000E-11
      9.99929996596777E-01   9.99929996496771E-01   0.00000000000000E+00  -1.99092572095207E-14   3.01725576964730E-07
      6.98323044004575E-07   1.00004860106005E-06  -2.20640590896660E-29   0.00000000000000E+00   1.00004861671552E-10
      0.00000000000000E+00   4.36405231199434E-18  -1.30910082153107E-11  -1.00003552733608E-06  -1.00004861833993E-06
      3.87088755959053E-31
      1.45000000000000E-11
      9.99929996596289E-01   9.99929996496285E-01   0.00000000000000E+00  -1.63061371290202E-14   3.01725573390155E-07
      6.98323043976149E-07   1.00004860106017E-06   2.22576034676455E-29   0.00000000000000E+00   1.00004860982859E-10
      0.00000000000000E+00   1.99936804554267E-17  -1.30910236760059E-11  -1.00003552725978E-06  -1.00004861826346E-06
      3.87088755959053E-31
      1.50000000000000E-11
      9.99929996596964E-01   9.99929996496959E-01   0.00000000000000E+00  -1.65015977591556E-14   3.01725573583886E-07
      6.98323043977991E-07   1.00004860106028E-06  -2.98058342088470E-29   0.00000000000000E+00   1.00004861677632E-10
      0.00000000000000E+00   3.04015429071646E-18  -1.30910069532131E-11  -1.00003552717643E-06  -1.00004861818034E-06
      3.87088755959053E-31
      1.55000000000000E-11
      9.99929996596567E-01   9.99929996496562E-01   0.00000000000000E+00  -1.63610971461241E-14   3.01725573445056E-07
      6.98323043976428E-07   1.00004860106039E-06  -6.77405322928342E-29   0.00000000000000E+00   1.00004861587173E-10
      0.00000000000000E+00  -3.29177233569617E-19  -1.30910034824448E-11  -1.00003552708729E-06  -1.00004861809110E-06
      0.00000000000000E+00
      1.60000000000000E-11
      9.99929996597106E-01   9.99929996497102E-01   0.00000000000000E+00  -1.94650527866886E-14   3.01725576524574E-07
      6.98323044000983E-07   1.00004860106050E-06   4.33539406674139E-29   0.00000000000000E+00   1.00004861757829E-10
      0.00000000000000E+00  -1.94561579505469E-18  -1.30910019048229E-11  -1.00003552701101E-06  -1.00004861801486E-06
      3.87088755959053E-31
      1.65000000000000E-11
      9.99929996596575E-01   9.99929996496570E-01   0.00000000000000E+00  -1.71245056033342E-14   3.01725574203576E-07
      6.98323043981545E-07   1.00004860106062E-06   1.93544377979526E-29   0.00000000000000E+00   1.00004861254532E-10
      0.00000000000000E+00  -5.61785673502788E-18  -1.30909981185302E-11  -1.00003552693980E-06  -1.00004861794353E-06
      0.00000000000000E+00
      1.70000000000000E-11
      9.99929996597046E-01   9.99929996497041E-01   0.00000000000000E+00  -1.79076189332546E-14   3.01725574980082E-07
      6.98323043988268E-07   1.00004860106073E-06  -4.45152069352910E-30   0.00000000000000E+00   1.00004861607761E-10
      0.00000000000000E+00   9.58982730220768E-18  -1.30910132637010E-11  -1.00003552686104E-06  -1.00004861786471E-06
      0.00000000000000E+00
      1.75000000000000E-11
      9.99929996596500E-01   9.99929996496494E-01   0.00000000000000E+00  -1.76157294201759E-14   3.01725574691693E-07
      6.98323043984878E-07   1.00004860106084E-06  -8.78691476027049E-29   0.00000000000000E+00   1.00004861340161E-10
      0.00000000000000E+00   6.73230347161112E-18  -1.30910104239814E-11  -1.00003552677434E-06  -1.00004861777803E-06
      3.87088755959053E-31
      1.80000000000000E-11
      9.99929996596613E-01   9.99929996496609E-01   0.00000000000000E+00  -1.83438513498627E-14   3.01725575414243E-07
      6.98323043990561E-07   1.00004860106095E-06  -3.59992543041919E-29   0.00000000000000E+00   1.00004861257646E-10
      0.00000000000000E+00  -2.38083206186576E-18  -1.30910015892985E-11  -1.00003552668743E-06  -1.00004861769140E-06
      3.87088755959053E-31
      1.85000000000000E-11
      9.99929996597079E-01   9.99929996497074E-01   0.00000000000000E+00  -1.75706014473055E-14   3.01725574646888E-07
      6.98323043984780E-07   1.00004860106107E-06   2.18705147116865E-29   0.00000000000000E+00   1.00004861450649E-10
      0.00000000000000E+00   4.64636222839466E-18  -1.30910085308351E-11  -1.00003552662231E-06  -1.00004861762619E-06
      0.00000000000000E+00
      1.90000000000000E-11
      9.99929996597065E-01   9.99929996497060E-01   0.00000000000000E+00  -1.93522114946290E-14   3.01725576414771E-07
      6.98323043998616E-07   1.00004860106118E-06  -6.75469879148547E-29   0.00000000000000E+00   1.00004861673595E-10
      0.00000000000000E+00   7.52877136014306E-18  -1.30910113705546E-11  -1.00003552654809E-06  -1.00004861755194E-06
      3.87088755959053E-31
      1.95000000000000E-11
      9.99929996596812E-01   9.99929996496807E-01   0.00000000000000E+00  -1.86572782615783E-14   3.01725575726297E-07
      6.98323043992271E-07   1.00004860106129E-06   1.87931591018120E-28   0.00000000000000E+00   1.00004861302601E-10
      0.00000000000000E+00  -9.88969518108735E-18  -1.30909940167131E-11  -1.00003552647792E-06  -1.00004861748183E-06
      0.00000000000000E+00
      2.00000000000000E-11
      9.99929996597131E-01   9.99929996497126E-01   0.00000000000000E+00  -1.71457565445044E-14   3.01725574226609E-07
      6.98323043980550E-07   1.00004860106140E-06  -4.93538163847792E-29   0.00000000000000E+00   1.00004861481076E-10
      0.00000000000000E+00   5.23241107052049E-18  -1.30910091618839E-11  -1.00003552640948E-06  -1.00004861741341E-06
      3.87088755959053E-31
      2.05000000000000E-11
      9.99929996596730E-01   9.99929996496725E-01   0.00000000000000E+00  -1.63311286074569E-14   3.01725573418551E-07
      6.98323043974083E-07   1.00004860106151E-06   1.36448786475566E-28   0.00000000000000E+00   1.00004861524407E-10
      0.00000000000000E+00   3.33822489784627E-18  -1.30910069532131E-11  -1.00003552631853E-06  -1.00004861732214E-06
      3.87088755959053E-31
      2.10000000000000E-11
      9.99929996597315E-01   9.99929996497310E-01   0.00000000000000E+00  -1.74791645557732E-14   3.01725574557279E-07
      6.98323043983503E-07   1.00004860106162E-06  -3.29025442565195E-30   0.00000000000000E+00   1.00004861789581E-10
      0.00000000000000E+00   6.17846726930961E-19  -1.30910044290180E-11  -1.00003552624253E-06  -1.00004861724635E-06
      3.87088755959053E-31
      2.15000000000000E-11
      9.99929996596816E-01   9.99929996496812E-01   0.00000000000000E+00  -1.82711161769011E-14   3.01725575344512E-07
      6.98323043988330E-07   1.00004860106173E-06  -2.57414022712770E-29   0.00000000000000E+00   1.00004861554525E-10
      0.00000000000000E+00   2.17787860580520E-18  -1.30910060066400E-11  -1.00003552616105E-06  -1.00004861716488E-06
      0.00000000000000E+00
      2.20000000000000E-11
      9.99929996597100E-01   9.99929996497096E-01   0.00000000000000E+00  -1.73196562732186E-14   3.01725574400463E-07
      6.98323043981025E-07   1.00004860106183E-06  -7.85790174596877E-29   0.00000000000000E+00   1.00004861445271E-10
      0.00000000000000E+00  -3.76348704419660E-18  -1.30910000116765E-11  -1.00003552609199E-06  -1.00004861709577E-06
      0.00000000000000E+00
      2.25000000000000E-11
      9.99929996597001E-01   9.99929996496997E-01   0.00000000000000E+00  -1.53837142242316E-14   3.01725572479866E-07
      6.98323043965788E-07   1.00004860106194E-06   2.43865916254203E-29   0.00000000000000E+00   1.00004861583594E-10
      0.00000000000000E+00  -6.07187522937590E-18  -1.30909978030058E-11  -1.00003552601245E-06  -1.00004861701632E-06
      3.87088755959053E-31
      2.30000000000000E-11
      9.99929996597179E-01   9.99929996497173E-01   0.00000000000000E+00  -1.49421660307941E-14   3.01725572042234E-07
      6.98323043961981E-07   1.00004860106205E-06   8.90304138705821E-30   0.00000000000000E+00   1.00004861871247E-10
      0.00000000000000E+00  -2.23456179176217E-18  -1.30910015892985E-11  -1.00003552592601E-06  -1.00004861692984E-06
      0.00000000000000E+00
      2.35000000000000E-11
      9.99929996597514E-01   9.99929996497509E-01   0.00000000000000E+00  -1.85362327004840E-14   3.01725575607975E-07
      6.98323043990413E-07   1.00004860106216E-06   6.52244553791003E-29   0.00000000000000E+00   1.00004862160342E-10
      0.00000000000000E+00   3.58279210749963E-18  -1.30910072687375E-11  -1.00003552585036E-06  -1.00004861685405E-06
      3.87088755959053E-31
      2.40000000000000E-11
      9.99929996596839E-01   9.99929996496834E-01   0.00000000000000E+00  -1.60495017925732E-14   3.01725573142152E-07
      6.98323043969608E-07   1.00004860106226E-06   6.50309110011208E-29   0.00000000000000E+00   1.00004861462283E-10
      0.00000000000000E+00   1.21519073074627E-17  -1.30910157878961E-11  -1.00003552577877E-06  -1.00004861678240E-06
      1.93544377979526E-31
      2.45000000000000E-11
      9.99929996597555E-01   9.99929996497550E-01   0.00000000000000E+00  -1.56820867730154E-14   3.01725572777090E-07
      6.98323043967364E-07   1.00004860106237E-06   7.60629405459538E-29   0.00000000000000E+00   1.00004861912190E-10
      0.00000000000000E+00   1.37131834513945E-17  -1.30910173655180E-11  -1.00003552570830E-06  -1.00004861671195E-06
      0.00000000000000E+00
      2.50000000000000E-11
      9.99929996596680E-01   9.99929996496675E-01   0.00000000000000E+00  -1.98965412353871E-14   3.01725576960313E-07
      6.98323043998700E-07   1.00004860106247E-06  -5.80633133938579E-31   0.00000000000000E+00   1.00004861723195E-10
      0.00000000000000E+00   2.55212588479426E-18  -1.30910063221644E-11  -1.00003552561090E-06  -1.00004861661467E-06
     -1.93544377979526E-31
      2.55000000000000E-11
      9.99929996596844E-01   9.99929996496839E-01   0.00000000000000E+00  -1.64060274191020E-14   3.01725573496802E-07
      6.98323043971800E-07   1.00004860106257E-06  -3.36767217684376E-29   0.00000000000000E+00   1.00004860989333E-10
      0.00000000000000E+00   9.01539160061937E-19  -1.30910047445424E-11  -1.00003552555097E-06  -1.00004861655481E-06
      1.93544377979526E-31
      2.60000000000000E-11
      9.99929996597094E-01   9.99929996497089E-01   0.00000000000000E+00  -1.74350082156611E-14   3.01725574518470E-07
      6.98323043979217E-07   1.00004860106268E-06  -1.03933330975006E-28   0.00000000000000E+00   1.00004861590861E-10
      0.00000000000000E+00  -1.57178327108483E-18  -1.30910022203473E-11  -1.00003552546951E-06  -1.00004861647330E-06
     -1.93544377979526E-31
      2.65000000000000E-11
      9.99929996597214E-01   9.99929996497209E-01   0.00000000000000E+00  -2.00361509546375E-14   3.01725577099459E-07
      6.98323043999471E-07   1.00004860106278E-06  -6.25148340873870E-29   0.00000000000000E+00   1.00004861603749E-10
      0.00000000000000E+00   1.09993031091133E-17  -1.30910148413229E-11  -1.00003552540305E-06  -1.00004861640689E-06
      1.93544377979526E-31
      2.70000000000000E-11
      9.99929996596710E-01   9.99929996496705E-01   0.00000000000000E+00  -1.74900091552602E-14   3.01725574574002E-07
      6.98323043978891E-07   1.00004860106288E-06   2.70962129171337E-30   0.00000000000000E+00   1.00004861040837E-10
      0.00000000000000E+00   5.71698318461605E-18  -1.30910094774083E-11  -1.00003552533702E-06  -1.00004861634079E-06
     -1.93544377979526E-31
      2.75000000000000E-11
      9.99929996597263E-01   9.99929996497258E-01   0.00000000000000E+00  -1.47120548308316E-14   3.01725571817581E-07
      6.98323043957462E-07   1.00004860106299E-06   8.01273724835239E-29   0.00000000000000E+00   1.00004861463344E-10
      0.00000000000000E+00  -1.39368746584149E-17  -1.30909899148960E-11  -1.00003552526745E-06  -1.00004861627130E-06
      1.93544377979526E-31
      2.80000000000000E-11
      9.99929996597163E-01   9.99929996497159E-01   0.00000000000000E+00  -1.88480599020905E-14   3.01725575922238E-07
      6.98323043988910E-07   1.00004860106309E-06   1.64512721282597E-28   0.00000000000000E+00   1.00004861951930E-10
      0.00000000000000E+00  -5.99334827907454E-18  -1.30909978030058E-11  -1.00003552517713E-06  -1.00004861618093E-06
     -1.93544377979526E-31
      2.85000000000000E-11
      9.99929996596453E-01   9.99929996496448E-01   0.00000000000000E+00  -1.77689343942005E-14   3.01725574852610E-07
      6.98323043979510E-07   1.00004860106319E-06  -1.85802602860345E-29   0.00000000000000E+00   1.00004861010949E-10
      0.00000000000000E+00   9.76056811844392E-20  -1.30910037979692E-11  -1.00003552509971E-06  -1.00004861610341E-06
      1.93544377979526E-31
      2.90000000000000E-11
      9.99929996596807E-01   9.99929996496802E-01   0.00000000000000E+00  -1.88436387518375E-14   3.01725575918767E-07
      6.98323043988159E-07   1.00004860106329E-06  -4.02572306197415E-29   0.00000000000000E+00   1.00004861082522E-10
      0.00000000000000E+00  -1.18874318568878E-17  -1.30909921235668E-11  -1.00003552502260E-06  -1.00004861602661E-06
     -1.93544377979526E-31
      2.95000000000000E-11
      9.99929996597026E-01   9.99929996497021E-01   0.00000000000000E+00  -1.80324639268282E-14   3.01725575114180E-07
      6.98323043981673E-07   1.00004860106339E-06   4.78054613609430E-29   0.00000000000000E+00   1.00004861182123E-10
      0.00000000000000E+00  -1.87538394513728E-18  -1.30910019048229E-11  -1.00003552496318E-06  -1.00004861596696E-06
     -1.93544377979526E-31
      3.00000000000000E-11
      9.99929996596640E-01   9.99929996496635E-01   0.00000000000000E+00  -1.69202574203553E-14   3.01725574012053E-07
      6.98323043971694E-07   1.00004860106349E-06   3.90959643518643E-29   0.00000000000000E+00   1.00004861214827E-10
      0.00000000000000E+00  -6.31519817397167E-18  -1.30909974874814E-11  -1.00003552488791E-06  -1.00004861589171E-06
     -1.93544377979526E-31
      3.05000000000000E-11
      9.99929996597024E-01   9.99929996497019E-01   0.00000000000000E+00  -1.88061245751062E-14   3.01725575882797E-07
      6.98323043986913E-07   1.00004860106359E-06   9.89011771475379E-29   0.00000000000000E+00   1.00004861340090E-10
      0.00000000000000E+00  -1.36428133498040E-17  -1.30909902304204E-11  -1.00003552481931E-06  -1.00004861582319E-06
      1.93544377979526E-31
      3.10000000000000E-11
      9.99929996596528E-01   9.99929996496523E-01   0.00000000000000E+00  -1.45028956719221E-14   3.01725571614068E-07
      6.98323043952512E-07   1.00004860106368E-06  -2.24317934078271E-28   0.00000000000000E+00   1.00004860961596E-10
      0.00000000000000E+00   2.30589965506411E-18  -1.30910060066400E-11  -1.00003552474702E-06  -1.00004861575072E-06
      1.93544377979526E-31
      3.15000000000000E-11
      9.99929996597275E-01   9.99929996497270E-01   0.00000000000000E+00  -1.50550044195686E-14   3.01725572161818E-07
      6.98323043956965E-07   1.00004860106378E-06   1.25416756930733E-28   0.00000000000000E+00   1.00004861724425E-10
      0.00000000000000E+00   5.63735022093016E-18  -1.30910094774083E-11  -1.00003552466554E-06  -1.00004861566938E-06
     -1.93544377979526E-31
      3.20000000000000E-11
      9.99929996597225E-01   9.99929996497220E-01   0.00000000000000E+00  -1.53861229831314E-14   3.01725572490594E-07
      6.98323043959406E-07   1.00004860106388E-06   1.11094472960248E-28   0.00000000000000E+00   1.00004861871679E-10
      0.00000000000000E+00   1.06184197498171E-17  -1.30910142102741E-11  -1.00003552459302E-06  -1.00004861559661E-06
      1.93544377979526E-31
      3.25000000000000E-11
      9.99929996596873E-01   9.99929996496868E-01   0.00000000000000E+00  -1.86590152555987E-14   3.01725575739233E-07
      6.98323043983754E-07   1.00004860106397E-06   1.82512348434693E-28   0.00000000000000E+00   1.00004861606634E-10
      0.00000000000000E+00  -9.73955386413792E-18  -1.30909940167131E-11  -1.00003552451153E-06  -1.00004861551528E-06
      1.93544377979526E-31
      3.30000000000000E-11