DF-ISE text

Info {
  version   = 1.0
  type      = xyplot
  datasets  = [
    "time"
    "Cathode OuterVoltage" "Cathode InnerVoltage" "Cathode QuasiFermiPotential" "Cathode DisplacementCurrent" "Cathode eCurrent"
    "Cathode hCurrent" "Cathode TotalCurrent" "Cathode Charge" "Anode OuterVoltage" "Anode InnerVoltage"
    "Anode QuasiFermiPotential" "Anode DisplacementCurrent" "Anode eCurrent" "Anode hCurrent" "Anode TotalCurrent"
    "Anode Charge" ]
  functions = [
    Time
    OuterVoltage InnerVoltage QuasiFermiPotential DisplacementCurrent eCurrent
    hCurrent TotalCurrent Charge OuterVoltage InnerVoltage
    QuasiFermiPotential DisplacementCurrent eCurrent hCurrent TotalCurrent
    Charge ]
}

Data {
      0.00000000000000E+00
      0.00000000000000E+00   0.00000000000000E+00   0.00000000000000E+00   0.00000000000000E+00   8.62857519626265E-21
      4.47926507819027E-21   1.31078402744529E-20  -1.97415265539117E-29   0.00000000000000E+00   0.00000000000000E+00
      0.00000000000000E+00   0.00000000000000E+00  -1.64806948719939E-22  -1.82302112145624E-19  -1.82466919094344E-19
      3.87088755959053E-31
      0.00000000000000E+00
      9.99937291679010E-01   9.99937291589427E-01   0.00000000000000E+00   0.00000000000000E+00   1.82907618779453E-07
      7.12925538215791E-07   8.95833156995245E-07  -1.07417129778637E-28   0.00000000000000E+00   8.95833156995246E-11
      0.00000000000000E+00   0.00000000000000E+00  -1.17276159986226E-11  -8.95821429379268E-07  -8.95833156995267E-07
     -1.93544377979526E-31
      1.00000000000000E-13
      9.99937291678668E-01   9.99937291589085E-01   0.00000000000000E+00   7.48207895899053E-14   1.82907507514645E-07
      7.12925632021847E-07   8.95833214357282E-07  -4.52893844472091E-29   0.00000000000000E+00   8.95833177813377E-11
      0.00000000000000E+00   1.40311622994458E-18  -1.17276143861479E-11  -8.95821429353669E-07  -8.95833156966652E-07
      5.80633133938579E-31
      2.30000000000000E-13
      9.99937291678114E-01   9.99937291588530E-01   0.00000000000000E+00   9.86292600733765E-14   1.82907505893797E-07
      7.12925610788829E-07   8.95833215311885E-07   7.35468636322200E-30   0.00000000000000E+00   8.95833153464314E-11
      0.00000000000000E+00   7.40199457594175E-18  -1.17276232208309E-11  -8.95821429327977E-07  -8.95833156943796E-07
     -1.93544377979526E-31
      3.99000000000000E-13
      9.99937291679884E-01   9.99937291590301E-01   0.00000000000000E+00   1.13249473488280E-13   1.82907508971106E-07
      7.12925596846096E-07   8.95833219066675E-07  -7.99338281055443E-29   0.00000000000000E+00   8.95833183727934E-11
      0.00000000000000E+00  -2.94517539132027E-18  -1.17276128085260E-11  -8.95821429323523E-07  -8.95833156939277E-07
     -1.93544377979526E-31
      6.18700000000000E-13
      9.99937291679066E-01   9.99937291589483E-01   0.00000000000000E+00   1.23575339563981E-13   1.82907508101521E-07
      7.12925587212242E-07   8.95833218889103E-07   2.09027928217888E-29   0.00000000000000E+00   8.95833159589769E-11
      0.00000000000000E+00   1.08658902446048E-17  -1.17276266915992E-11  -8.95821429344549E-07  -8.95833156960375E-07
      5.80633133938579E-31
      9.04310000000000E-13
      9.99937291679196E-01   9.99937291589613E-01   0.00000000000000E+00   1.26231336972287E-13   1.82907510437032E-07
      7.12925582205226E-07   8.95833218873595E-07   1.07417129778637E-28   0.00000000000000E+00   8.95833162590811E-11
      0.00000000000000E+00   1.57067725770030E-18  -1.17276175413919E-11  -8.95821429360814E-07  -8.95833156976785E-07
      5.80633133938579E-31
      1.27560300000000E-12
      9.99937291678278E-01   9.99937291588695E-01   0.00000000000000E+00   1.32002351122764E-13   1.82907506492346E-07
      7.12925580381366E-07   8.95833218876063E-07   6.42567334892027E-29   0.00000000000000E+00   8.95833151370383E-11
      0.00000000000000E+00   9.86218309814726E-18  -1.17276257450260E-11  -8.95821429392611E-07  -8.95833157008494E-07
      1.93544377979526E-31
      1.75828390000000E-12
      9.99937291679147E-01   9.99937291589563E-01   0.00000000000000E+00   1.28714362735359E-13   1.82907510109202E-07
      7.12925580050966E-07   8.95833218874531E-07  -4.83860944948816E-30   0.00000000000000E+00   8.95833159667055E-11
      0.00000000000000E+00   1.19601522369204E-18  -1.17276172258675E-11  -8.95821429432474E-07  -8.95833157048503E-07
      1.93544377979526E-31
      2.25828390000000E-12
      9.99937291678401E-01   9.99937291588818E-01   0.00000000000000E+00   1.30195023222713E-13   1.82907508666309E-07
      7.12925580012876E-07   8.95833218874208E-07   1.29674733246283E-28   0.00000000000000E+00   8.95833154688692E-11
      0.00000000000000E+00   1.24357379922667E-18  -1.17276172258675E-11  -8.95821429489963E-07  -8.95833157105945E-07
      1.93544377979526E-31
      2.75828390000000E-12
      9.99937291678828E-01   9.99937291589245E-01   0.00000000000000E+00   1.31766221550969E-13   1.82907507105725E-07
      7.12925580001787E-07   8.95833218873734E-07  -5.07086270306359E-29   0.00000000000000E+00   8.95833156646083E-11
      0.00000000000000E+00   4.88111356926035E-18  -1.17276210121602E-11  -8.95821429557071E-07  -8.95833157173202E-07
      1.93544377979526E-31
      3.25828390000000E-12
      9.99937291678837E-01   9.99937291589254E-01   0.00000000000000E+00   1.32229488943994E-13   1.82907506641589E-07
      7.12925580002244E-07   8.95833218873322E-07   1.21932958127102E-28   0.00000000000000E+00   8.95833160423555E-11
      0.00000000000000E+00   8.43141653358953E-18  -1.17276244829285E-11  -8.95821429625652E-07  -8.95833157241703E-07
      1.93544377979526E-31
      3.75828390000000E-12
      9.99937291679225E-01   9.99937291589642E-01   0.00000000000000E+00   1.29461453624101E-13   1.82907509382550E-07
      7.12925580028907E-07   8.95833218872910E-07   2.34962874867145E-28   0.00000000000000E+00   8.95833163533499E-11
      0.00000000000000E+00   8.10002727325086E-18  -1.17276241674041E-11  -8.95821429713078E-07  -8.95833157329145E-07
      5.80633133938579E-31
      4.25828390000000E-12
      9.99937291678253E-01   9.99937291588670E-01   0.00000000000000E+00   1.27750821847478E-13   1.82907511075653E-07
      7.12925580046024E-07   8.95833218872499E-07   9.25142126742136E-29   0.00000000000000E+00   8.95833156501345E-11
      0.00000000000000E+00   5.62255729191212E-18  -1.17276216432089E-11  -8.95821429796911E-07  -8.95833157412932E-07
     -1.93544377979526E-31
      4.75828390000000E-12
      9.99937291678642E-01   9.99937291589058E-01   0.00000000000000E+00   1.28977402304058E-13   1.82907509852681E-07
      7.12925580042010E-07   8.95833218872093E-07   9.67721889897631E-30   0.00000000000000E+00   8.95833153682113E-11
      0.00000000000000E+00   9.25843804186901E-18  -1.17276254295016E-11  -8.95821429908612E-07  -8.95833157524783E-07
      1.93544377979526E-31
      5.00000000000000E-12
      9.99937291678764E-01   9.99937291589181E-01   0.00000000000000E+00   1.31766420633378E-13   1.82907507082377E-07
      7.12925580023099E-07   8.95833218871897E-07  -5.84504021498169E-29   0.00000000000000E+00   8.95833152185661E-11
      0.00000000000000E+00   7.13364807852107E-18  -1.17276232208309E-11  -8.95821429963863E-07  -8.95833157579951E-07
      1.93544377979526E-31
      5.50000000000000E-12
      9.99937291679034E-01   9.99937291589451E-01   0.00000000000000E+00   1.30297981732175E-13   1.82907508533789E-07
      7.12925580039717E-07   8.95833218871488E-07  -2.43865916254203E-29   0.00000000000000E+00   8.95833162946633E-11
      0.00000000000000E+00   3.80869534128911E-18  -1.17276197500626E-11  -8.95821430061571E-07  -8.95833157677513E-07
     -1.93544377979526E-31
      6.00000000000000E-12
      9.99937291678544E-01   9.99937291588960E-01   0.00000000000000E+00   1.31116856345864E-13   1.82907507716265E-07
      7.12925580037957E-07   8.95833218871079E-07  -5.76762246378988E-29   0.00000000000000E+00   8.95833159693727E-11
      0.00000000000000E+00  -4.36336105362902E-18  -1.17276118619528E-11  -8.95821430164242E-07  -8.95833157780468E-07
      1.93544377979526E-31
      6.50000000000000E-12
      9.99937291679039E-01   9.99937291589456E-01   0.00000000000000E+00   1.29143317307394E-13   1.82907509668415E-07
      7.12925580058942E-07   8.95833218870674E-07   6.59986328910185E-29   0.00000000000000E+00   8.95833161998885E-11
      0.00000000000000E+00  -1.98962130259153E-17  -1.17275964012577E-11  -8.95821430279601E-07  -8.95833157895898E-07
     -5.80633133938579E-31
      7.00000000000000E-12
      9.99937291678482E-01   9.99937291588899E-01   0.00000000000000E+00   1.28884157910152E-13   1.82907509921150E-07
      7.12925580064960E-07   8.95833218870267E-07   1.19416881213368E-28   0.00000000000000E+00   8.95833158637002E-11
      0.00000000000000E+00  -1.15440147009925E-18  -1.17276150171967E-11  -8.95821430395622E-07  -8.95833158011794E-07
     -5.80633133938579E-31
      7.50000000000000E-12
      9.99937291678786E-01   9.99937291589202E-01   0.00000000000000E+00   1.31674187550461E-13   1.82907507146744E-07
      7.12925580048931E-07   8.95833218869863E-07   1.07997762912576E-28   0.00000000000000E+00   8.95833158258303E-11
      0.00000000000000E+00   9.39765747664625E-18  -1.17276254295016E-11  -8.95821430523727E-07  -8.95833158139759E-07
      1.93544377979526E-31
      8.00000000000000E-12
      9.99937291678795E-01   9.99937291589212E-01   0.00000000000000E+00   1.32739356551955E-13   1.82907506083742E-07
      7.12925580046359E-07   8.95833218869457E-07  -3.23219111225809E-29   0.00000000000000E+00   8.95833163066148E-11
      0.00000000000000E+00   6.75539150101310E-18  -1.17276229053065E-11  -8.95821430633407E-07  -8.95833158249557E-07
     -1.93544377979526E-31
      8.50000000000000E-12
      9.99937291678634E-01   9.99937291589051E-01   0.00000000000000E+00   1.32772585756331E-13   1.82907506045564E-07
      7.12925580050904E-07   8.95833218869053E-07   2.45414271278039E-28   0.00000000000000E+00   8.95833163789499E-11
      0.00000000000000E+00  -1.50099841447515E-18  -1.17276147016723E-11  -8.95821430737488E-07  -8.95833158353691E-07
      1.93544377979526E-31
      9.00000000000000E-12
      9.99937291679120E-01   9.99937291589537E-01   0.00000000000000E+00   1.32900092924122E-13   1.82907505913043E-07
      7.12925580055513E-07   8.95833218868650E-07   1.04901052864903E-28   0.00000000000000E+00   8.95833166220694E-11
      0.00000000000000E+00   1.41204728802463E-17  -1.17276301623675E-11  -8.95821430861485E-07  -8.95833158477527E-07
     -5.80633133938579E-31
      9.50000000000000E-12
      9.99937291679106E-01   9.99937291589522E-01   0.00000000000000E+00   1.31611957016122E-13   1.82907507185869E-07
      7.12925580070425E-07   8.95833218868251E-07  -5.01279938966973E-29   0.00000000000000E+00   8.95833168288368E-11
      0.00000000000000E+00  -7.72273845745435E-19  -1.17276153327211E-11  -8.95821430985594E-07  -8.95833158601698E-07
      1.93544377979526E-31
      1.00000000000000E-11
      9.99937291679101E-01   9.99937291589518E-01   0.00000000000000E+00   1.29522511369497E-13   1.82907509254447E-07
      7.12925580090892E-07   8.95833218867850E-07  -1.00643076549354E-29   0.00000000000000E+00   8.95833167848286E-11
      0.00000000000000E+00  -2.66936330355404E-18  -1.17276134395748E-11  -8.95821431125768E-07  -8.95833158741877E-07
      1.93544377979526E-31
      1.05000000000000E-11
      9.99937291678544E-01   9.99937291588961E-01   0.00000000000000E+00   1.32302253702813E-13   1.82907506490768E-07
      7.12925580074429E-07   8.95833218867451E-07   9.09658576503773E-30   0.00000000000000E+00   8.95833161482392E-11
      0.00000000000000E+00  -3.67638849016516E-18  -1.17276124930016E-11  -8.95821431262135E-07  -8.95833158878304E-07
     -1.93544377979526E-31
      1.10000000000000E-11
      9.99937291678527E-01   9.99937291588943E-01   0.00000000000000E+00   1.32663591040571E-13   1.82907506126338E-07
      7.12925580077123E-07   8.95833218867052E-07  -9.87076327695584E-30   0.00000000000000E+00   8.95833163197138E-11
      0.00000000000000E+00   1.72835329083182E-17  -1.17276333176114E-11  -8.95821431372436E-07  -8.95833158988470E-07
     -1.93544377979526E-31
      1.15000000000000E-11
      9.99937291679282E-01   9.99937291589699E-01   0.00000000000000E+00   1.29425932345237E-13   1.82907509332697E-07
      7.12925580108026E-07   8.95833218866655E-07   5.65149583700217E-29   0.00000000000000E+00   8.95833167978025E-11
      0.00000000000000E+00   5.45679353590625E-19  -1.17276165948187E-11  -8.95821431510108E-07  -8.95833159126157E-07
      1.93544377979526E-31
      1.20000000000000E-11
      9.99937291678699E-01   9.99937291589116E-01   0.00000000000000E+00   1.28228896824197E-13   1.82907510515598E-07
      7.12925580121768E-07   8.95833218866262E-07   1.33158532049914E-28   0.00000000000000E+00   8.95833163595087E-11
      0.00000000000000E+00   1.19485390963829E-17  -1.17276279536968E-11  -8.95821431652055E-07  -8.95833159268060E-07
      5.80633133938579E-31
      1.25000000000000E-11
      9.99937291678609E-01   9.99937291589025E-01   0.00000000000000E+00   1.32612142477712E-13   1.82907506161045E-07
      7.12925580092682E-07   8.95833218865870E-07  -6.69663547809161E-29   0.00000000000000E+00   8.95833159879892E-11
      0.00000000000000E+00   8.64888641532200E-18  -1.17276247984528E-11  -8.95821431794474E-07  -8.95833159410624E-07
     -1.93544377979526E-31
      1.30000000000000E-11
      9.99937291678533E-01   9.99937291588950E-01   0.00000000000000E+00   1.29388260285095E-13   1.82907509354153E-07
      7.12925580123062E-07   8.95833218865475E-07   9.89011771475379E-29   0.00000000000000E+00   8.95833164752003E-11
      0.00000000000000E+00   6.86696060117719E-19  -1.17276169103431E-11  -8.95821431902262E-07  -8.95833159518485E-07
     -1.93544377979526E-31
      1.35000000000000E-11
      9.99937291678753E-01   9.99937291589169E-01   0.00000000000000E+00   1.31111777808906E-13   1.82907507638331E-07
      7.12925580114975E-07   8.95833218865084E-07  -1.04513964108944E-29   0.00000000000000E+00   8.95833161912269E-11
      0.00000000000000E+00   1.22073462283621E-17  -1.17276282692211E-11  -8.95821432047923E-07  -8.95833159663985E-07
     -5.80633133938579E-31
      1.40000000000000E-11
      9.99937291678541E-01   9.99937291588957E-01   0.00000000000000E+00   1.30353454109980E-13   1.82907508385492E-07
      7.12925580125747E-07   8.95833218864693E-07   2.07092484438093E-29   0.00000000000000E+00   8.95833163857370E-11
      0.00000000000000E+00   5.79938118176325E-18  -1.17276219587333E-11  -8.95821432169637E-07  -8.95833159785797E-07
      1.93544377979526E-31
      1.45000000000000E-11
      9.99937291678135E-01   9.99937291588552E-01   0.00000000000000E+00   1.28767355707659E-13   1.82907509954595E-07
      7.12925580142349E-07   8.95833218864300E-07   1.50190437312112E-28   0.00000000000000E+00   8.95833160208206E-11
      0.00000000000000E+00   2.78991876246740E-19  -1.17276162792943E-11  -8.95821432287544E-07  -8.95833159903544E-07
     -5.80633133938579E-31
      1.50000000000000E-11
      9.99937291678442E-01   9.99937291588859E-01   0.00000000000000E+00   1.27981065907298E-13   1.82907510729208E-07
      7.12925580153637E-07   8.95833218863911E-07   1.74189940181574E-30   0.00000000000000E+00   8.95833159555994E-11
      0.00000000000000E+00   7.61863494763582E-18  -1.17276238518797E-11  -8.95821432429586E-07  -8.95833160045819E-07
     -1.93544377979526E-31
      1.55000000000000E-11
      9.99937291678519E-01   9.99937291588936E-01   0.00000000000000E+00   1.29681653285118E-13   1.82907509035473E-07
      7.12925580146395E-07   8.95833218863521E-07   1.10320295448330E-29   0.00000000000000E+00   8.95833159596297E-11
      0.00000000000000E+00  -1.25594732396606E-17  -1.17276036583187E-11  -8.95821432577599E-07  -8.95833160193817E-07
     -1.93544377979526E-31
      1.60000000000000E-11
      9.99937291678306E-01   9.99937291588722E-01   0.00000000000000E+00   1.28378696521263E-13   1.82907510323443E-07
      7.12925580160996E-07   8.95833218863136E-07  -5.14828045425540E-29   0.00000000000000E+00   8.95833160913149E-11
      0.00000000000000E+00  -4.87392448226093E-18  -1.17276112309040E-11  -8.95821432701879E-07  -8.95833160317984E-07
      1.93544377979526E-31
      1.65000000000000E-11
      9.99937291678365E-01   9.99937291588782E-01   0.00000000000000E+00   1.32273660768293E-13   1.82907506451959E-07
      7.12925580137129E-07   8.95833218862749E-07   3.89024199738848E-29   0.00000000000000E+00   8.95833159127783E-11
      0.00000000000000E+00   6.72995319316900E-18  -1.17276229053065E-11  -8.95821432839460E-07  -8.95833160455635E-07
      1.93544377979526E-31
      1.70000000000000E-11
      9.99937291678500E-01   9.99937291588916E-01   0.00000000000000E+00   1.29695563200700E-13   1.82907509005182E-07
      7.12925580161616E-07   8.95833218862361E-07  -1.74189940181574E-30   0.00000000000000E+00   8.95833164981596E-11
      0.00000000000000E+00  -1.09446936982523E-17  -1.17276052359406E-11  -8.95821432951537E-07  -8.95833160567718E-07
     -5.80633133938579E-31
      1.75000000000000E-11
      9.99937291678633E-01   9.99937291589049E-01   0.00000000000000E+00   1.28051314347416E-13   1.82907510631080E-07
      7.12925580179581E-07   8.95833218861975E-07   3.25154555005604E-29   0.00000000000000E+00   8.95833163271287E-11
      0.00000000000000E+00   5.69748969871377E-18  -1.17276219587333E-11  -8.95821433091402E-07  -8.95833160707663E-07
      5.80633133938579E-31
      1.80000000000000E-11
      9.99937291678228E-01   9.99937291588645E-01   0.00000000000000E+00   1.28854897081799E-13   1.82907509828386E-07
      7.12925580178311E-07   8.95833218861594E-07  -2.30317809795636E-29   0.00000000000000E+00   8.95833159812043E-11
      0.00000000000000E+00   7.93979358416762E-19  -1.17276169103431E-11  -8.95821433225921E-07  -8.95833160842038E-07
      1.93544377979526E-31
      1.85000000000000E-11
      9.99937291678287E-01   9.99937291588704E-01   0.00000000000000E+00   1.30954970687540E-13   1.82907507738352E-07
      7.12925580167888E-07   8.95833218861211E-07   6.83211654267728E-29   0.00000000000000E+00   8.95833159827586E-11
      0.00000000000000E+00   1.12946086827818E-17  -1.17276273226480E-11  -8.95821433355238E-07  -8.95833160971266E-07
      1.93544377979526E-31
      1.90000000000000E-11
      9.99937291678491E-01   9.99937291588908E-01   0.00000000000000E+00   1.30634035742215E-13   1.82907508051037E-07
      7.12925580175756E-07   8.95833218860828E-07   1.40126129657177E-28   0.00000000000000E+00   8.95833163968241E-11
      0.00000000000000E+00  -6.25270841774594E-18  -1.17276099688065E-11  -8.95821433475985E-07  -8.95833161092207E-07
      1.93544377979526E-31
      1.95000000000000E-11
      9.99937291678903E-01   9.99937291589319E-01   0.00000000000000E+00   1.32199955759845E-13   1.82907506491400E-07
      7.12925580169093E-07   8.95833218860448E-07   5.20634376764926E-29   0.00000000000000E+00   8.95833166640560E-11
      0.00000000000000E+00   4.94996290244711E-18  -1.17276210121602E-11  -8.95821433614418E-07  -8.95833161230480E-07
     -5.80633133938579E-31
      2.00000000000000E-11
      9.99937291679042E-01   9.99937291589460E-01   0.00000000000000E+00   1.30751624043721E-13   1.82907507922303E-07
      7.12925580186143E-07   8.95833218860069E-07  -1.08578396046514E-28   0.00000000000000E+00   8.95833170987483E-11
      0.00000000000000E+00  -6.88631583540640E-18  -1.17276093377577E-11  -8.95821433743811E-07  -8.95833161360035E-07
      5.80633133938579E-31
      2.05000000000000E-11
      9.99937291678500E-01   9.99937291588917E-01   0.00000000000000E+00   1.29689228094285E-13   1.82907508971737E-07
      7.12925580198722E-07   8.95833218859687E-07   6.21277453314279E-29   0.00000000000000E+00   8.95833166782052E-11
      0.00000000000000E+00  -5.70841158088597E-18  -1.17276105998553E-11  -8.95821433867068E-07  -8.95833161483376E-07
     -5.80633133938579E-31
      2.10000000000000E-11
      9.99937291678330E-01   9.99937291588746E-01   0.00000000000000E+00   1.30846865897799E-13   1.82907507817864E-07
      7.12925580194578E-07   8.95833218859308E-07  -5.78697690158784E-29   0.00000000000000E+00   8.95833162857468E-11
      0.00000000000000E+00   9.87255197362720E-19  -1.17276172258675E-11  -8.95821433991518E-07  -8.95833161607757E-07
      5.80633133938579E-31
      2.15000000000000E-11
      9.99937291678535E-01   9.99937291588951E-01   0.00000000000000E+00   1.32898238001424E-13   1.82907505776106E-07
      7.12925580184586E-07   8.95833218858930E-07   2.22188945920496E-28   0.00000000000000E+00   8.95833165091679E-11
      0.00000000000000E+00  -2.39023317563423E-18  -1.17276137550992E-11  -8.95821434112891E-07  -8.95833161729036E-07
     -1.93544377979526E-31
      2.20000000000000E-11
      9.99937291678771E-01   9.99937291589187E-01   0.00000000000000E+00   1.30687431579890E-13   1.82907507963636E-07
      7.12925580207483E-07   8.95833218858551E-07  -1.01223709683292E-28   0.00000000000000E+00   8.95833169742918E-11
      0.00000000000000E+00  -3.06545434688749E-18  -1.17276131240504E-11  -8.95821434228685E-07  -8.95833161844875E-07
     -1.93544377979526E-31
      2.25000000000000E-11
      9.99937291678770E-01   9.99937291589186E-01   0.00000000000000E+00   1.30320087759943E-13   1.82907508323019E-07
      7.12925580215067E-07   8.95833218858173E-07  -4.50958400692296E-29   0.00000000000000E+00   8.95833168044547E-11
      0.00000000000000E+00  -1.11725324554647E-17  -1.17276052359406E-11  -8.95821434362546E-07  -8.95833161978954E-07
     -1.93544377979526E-31
      2.30000000000000E-11
      9.99937291678147E-01   9.99937291588563E-01   0.00000000000000E+00   1.32406543714139E-13   1.82907506247499E-07
      7.12925580203755E-07   8.95833218857798E-07  -7.37404080101995E-29   0.00000000000000E+00   8.95833164434869E-11
      0.00000000000000E+00  -1.09334953127340E-17  -1.17276052359406E-11  -8.95821434475426E-07  -8.95833162091596E-07
     -5.80633133938579E-31
      2.35000000000000E-11
      9.99937291678410E-01   9.99937291588827E-01   0.00000000000000E+00   1.31215430203515E-13   1.82907507423459E-07
      7.12925580218532E-07   8.95833218857421E-07  -4.52893844472091E-29   0.00000000000000E+00   8.95833166572897E-11
      0.00000000000000E+00   2.00050170926181E-18  -1.17276181724406E-11  -8.95821434582108E-07  -8.95833162198279E-07
     -1.93544377979526E-31
      2.40000000000000E-11
      9.99937291678526E-01   9.99937291588943E-01   0.00000000000000E+00   1.31469030500983E-13   1.82907507165675E-07
      7.12925580222340E-07   8.95833218857046E-07  -9.09658576503773E-30   0.00000000000000E+00   8.95833166747796E-11
      0.00000000000000E+00   1.71165248872548E-17  -1.17276333176114E-11  -8.95821434705508E-07  -8.95833162321709E-07
      5.80633133938579E-31
      2.45000000000000E-11
      9.99937291678518E-01   9.99937291588934E-01   0.00000000000000E+00   1.30062401987285E-13   1.82907508555876E-07
      7.12925580238393E-07   8.95833218856671E-07   1.07610674156617E-28   0.00000000000000E+00   8.95833167676479E-11
      0.00000000000000E+00  -9.31788626128730E-18  -1.17276068135626E-11  -8.95821434824594E-07  -8.95833162440725E-07
     -1.93544377979526E-31
      2.50000000000000E-11
      9.99937291678513E-01   9.99937291588930E-01   0.00000000000000E+00   1.29523378207487E-13   1.82907509085641E-07
      7.12925580247279E-07   8.95833218856298E-07   5.82568577718374E-29   0.00000000000000E+00   8.95833166039843E-11
      0.00000000000000E+00   5.07176262641806E-18  -1.17276213276845E-11  -8.95821434953763E-07  -8.95833162570019E-07
      1.93544377979526E-31
      2.55000000000000E-11
      9.99937291677931E-01   9.99937291588348E-01   0.00000000000000E+00   1.28586031172843E-13   1.82907510010443E-07
      7.12925580259453E-07   8.95833218855927E-07   1.93544377979526E-29   0.00000000000000E+00   8.95833162267432E-11
      0.00000000000000E+00   2.09313033021588E-18  -1.17276181724406E-11  -8.95821435065446E-07  -8.95833162681525E-07
     -5.80633133938579E-31
      2.60000000000000E-11
      9.99937291677809E-01   9.99937291588226E-01   0.00000000000000E+00   1.28835857890894E-13   1.82907509757077E-07
      7.12925580262619E-07   8.95833218855554E-07  -1.49996892934133E-28   0.00000000000000E+00   8.95833158723381E-11
      0.00000000000000E+00  -1.56182915062409E-18  -1.17276147016723E-11  -8.95821435180002E-07  -8.95833162796265E-07
      1.93544377979526E-31
      2.65000000000000E-11
      9.99937291678559E-01   9.99937291588975E-01   0.00000000000000E+00   1.32263101105504E-13   1.82907506349413E-07
      7.12925580242668E-07   8.95833218855183E-07   2.72897572951132E-29   0.00000000000000E+00   8.95833162937208E-11
      0.00000000000000E+00   5.77131609213090E-18  -1.17276219587333E-11  -8.95821435315245E-07  -8.95833162931432E-07
     -5.80633133938579E-31
      2.70000000000000E-11
      9.99937291678551E-01   9.99937291588968E-01   0.00000000000000E+00   1.28716952603951E-13   1.82907509862778E-07
      7.12925580275083E-07   8.95833218854813E-07  -5.32247039443697E-29   0.00000000000000E+00   8.95833169850995E-11
      0.00000000000000E+00   2.38650038046146E-18  -1.17276184879650E-11  -8.95821435423402E-07  -8.95833163039504E-07
      5.80633133938579E-31
      2.75000000000000E-11
      9.99937291678350E-01   9.99937291588766E-01   0.00000000000000E+00   1.30831456642823E-13   1.82907507759177E-07
      7.12925580263813E-07   8.95833218854446E-07   1.27932833844467E-28   0.00000000000000E+00   8.95833164408007E-11
      0.00000000000000E+00   8.59870105799912E-18  -1.17276247984528E-11  -8.95821435553434E-07  -8.95833163169634E-07
      1.93544377979526E-31
      2.80000000000000E-11
      9.99937291677989E-01   9.99937291588405E-01   0.00000000000000E+00   1.31737042567607E-13   1.82907506855199E-07
      7.12925580261834E-07   8.95833218854076E-07  -6.03858459296122E-29   0.00000000000000E+00   8.95833164534466E-11
      0.00000000000000E+00   4.74479741961750E-19  -1.17276165948187E-11  -8.95821435651369E-07  -8.95833163267489E-07
     -5.80633133938579E-31
      2.85000000000000E-11
      9.99937291678678E-01   9.99937291589095E-01   0.00000000000000E+00   1.28010222632141E-13   1.82907510546519E-07
      7.12925580296967E-07   8.95833218853708E-07  -6.81276210487932E-29   0.00000000000000E+00   8.95833168415530E-11
      0.00000000000000E+00  -1.42652223819462E-17  -1.17276020806967E-11  -8.95821435768354E-07  -8.95833163384700E-07
     -5.80633133938579E-31
      2.90000000000000E-11
      9.99937291678311E-01   9.99937291588728E-01   0.00000000000000E+00   1.31039025354485E-13   1.82907507535785E-07
      7.12925580278531E-07   8.95833218853342E-07   4.70312838490249E-29   0.00000000000000E+00   8.95833164291054E-11
      0.00000000000000E+00  -3.09448719823131E-18  -1.17276131240504E-11  -8.95821435900717E-07  -8.95833163516936E-07
     -1.93544377979526E-31
      2.95000000000000E-11
      9.99937291678072E-01   9.99937291588488E-01   0.00000000000000E+00   1.31964231403704E-13   1.82907506612561E-07
      7.12925580276179E-07   8.95833218852972E-07   4.45152069352910E-30   0.00000000000000E+00   8.95833165574264E-11
      0.00000000000000E+00   6.78373309399159E-18  -1.17276229053065E-11  -8.95821435997154E-07  -8.95833163613276E-07
     -1.93544377979526E-31
      3.00000000000000E-11
      9.99937291678747E-01   9.99937291589163E-01   0.00000000000000E+00   1.28992644827517E-13   1.82907509554826E-07
      7.12925580305135E-07   8.95833218852605E-07  -1.85802602860345E-29   0.00000000000000E+00   8.95833170669384E-11
      0.00000000000000E+00   8.25431614039227E-18  -1.17276244829285E-11  -8.95821436117361E-07  -8.95833163733589E-07
     -5.80633133938579E-31
      3.05000000000000E-11
      9.99937291677992E-01   9.99937291588408E-01   0.00000000000000E+00   1.29644815435571E-13   1.82907508902321E-07
      7.12925580305103E-07   8.95833218852240E-07   1.12062194850146E-28   0.00000000000000E+00   8.95833164584877E-11
      0.00000000000000E+00  -3.41675184814763E-18  -1.17276128085260E-11  -8.95821436235361E-07  -8.95833163851586E-07
     -1.93544377979526E-31
      3.10000000000000E-11
      9.99937291677994E-01   9.99937291588410E-01   0.00000000000000E+00   1.29254038095292E-13   1.82907509284737E-07
      7.12925580313095E-07   8.95833218851871E-07   4.45152069352910E-29   0.00000000000000E+00   8.95833162895548E-11
      0.00000000000000E+00   1.65749930838561E-18  -1.17276178569162E-11  -8.95821436341680E-07  -8.95833163957879E-07
     -1.93544377979526E-31
      3.15000000000000E-11
      9.99937291677939E-01   9.99937291588356E-01   0.00000000000000E+00   1.29505792179918E-13   1.82907509028847E-07
      7.12925580316869E-07   8.95833218851508E-07  -2.65155797831951E-29   0.00000000000000E+00   8.95833162512417E-11
      0.00000000000000E+00  -3.17508792362865E-18  -1.17276131240504E-11  -8.95821436449488E-07  -8.95833164065788E-07
     -1.93544377979526E-31
      3.20000000000000E-11
      9.99937291678484E-01   9.99937291588901E-01   0.00000000000000E+00   1.30247093226843E-13   1.82907508286733E-07
      7.12925580317319E-07   8.95833218851146E-07   2.20640590896660E-29   0.00000000000000E+00   8.95833165650735E-11
      0.00000000000000E+00   1.83473795325594E-18  -1.17276181724406E-11  -8.95821436571705E-07  -8.95833164188043E-07
     -5.80633133938579E-31
      3.25000000000000E-11
      9.99937291678210E-01   9.99937291588626E-01   0.00000000000000E+00   1.28197000780704E-13   1.82907510316186E-07
      7.12925580337595E-07   8.95833218850782E-07   7.25791417423224E-29   0.00000000000000E+00   8.95833166925697E-11
      0.00000000000000E+00   5.83574137177955E-18  -1.17276219587333E-11  -8.95821436678568E-07  -8.95833164294691E-07
     -1.93544377979526E-31
      3.30000000000000E-11