DF-ISE text

Info {
  version   = 1.0
  type      = xyplot
  datasets  = [
    "time"
    "ntype OuterVoltage" "ntype InnerVoltage" "ntype QuasiFermiPotential" "ntype DisplacementCurrent" "ntype eCurrent"
    "ntype hCurrent" "ntype TotalCurrent" "ntype Charge" "ptype OuterVoltage" "ptype InnerVoltage"
    "ptype QuasiFermiPotential" "ptype DisplacementCurrent" "ptype eCurrent" "ptype hCurrent" "ptype TotalCurrent"
    "ptype Charge" ]
  functions = [
    Time
    OuterVoltage InnerVoltage QuasiFermiPotential DisplacementCurrent eCurrent
    hCurrent TotalCurrent Charge OuterVoltage InnerVoltage
    QuasiFermiPotential DisplacementCurrent eCurrent hCurrent TotalCurrent
    Charge ]
}

Data {
      1.00000000000000E-02
      2.00000000000000E-01   1.99999999999722E-01   0.00000000000000E+00   0.00000000000000E+00   2.51802214285771E-09
      2.56657984845431E-10   2.77468012770314E-09  -4.54135439217157E-28   0.00000000000000E+00   2.77468012781234E-13
      0.00000000000000E+00   0.00000000000000E+00  -1.02171909057012E-14  -2.77466991062995E-09  -2.77468012782086E-09
     -1.14191183007920E-29
      2.00000000000000E-02
      4.00000000000000E-01   3.99999999999515E-01   0.00000000000000E+00   0.00000000000000E+00   4.40276229941340E-09
      4.43884697224102E-10   4.84664699663750E-09   2.09937435587847E-27   0.00000000000000E+00   4.84664699662992E-13
      0.00000000000000E+00   0.00000000000000E+00  -1.02381220587489E-14  -4.84663675849581E-09  -4.84664699661787E-09
     -3.09671004767242E-30
      3.00000000000000E-02
      6.00000000000000E-01   5.99999999999294E-01   0.00000000000000E+00   0.00000000000000E+00   6.24276632635100E-09
      8.00683587706591E-10   7.04344991405759E-09   5.14760758512883E-28   0.00000000000000E+00   7.04344991397774E-13
      0.00000000000000E+00   0.00000000000000E+00  -1.02042288128326E-14  -7.04343970975755E-09  -7.04344991398636E-09
     -1.06449407888739E-30
      4.00000000000000E-02
      8.00000000000000E-01   7.99999999998899E-01   0.00000000000000E+00   0.00000000000000E+00   7.95752459903589E-09
      3.02446807885186E-09   1.09819926778878E-08   2.48726148239669E-27   0.00000000000000E+00   1.09819926779107E-12
      0.00000000000000E+00   0.00000000000000E+00  -1.00714190656323E-14  -1.09819826064987E-08  -1.09819926779178E-08
      1.47093727264440E-29
      5.00000000000000E-02
      1.00000000000000E+00   9.99999999996832E-01   0.00000000000000E+00   0.00000000000000E+00   9.57715315392738E-09
      2.21315818749844E-08   3.17087350289118E-08   1.42569173809533E-27   0.00000000000000E+00   3.17087350288998E-12
      0.00000000000000E+00   0.00000000000000E+00  -9.18300548530076E-15  -3.17087258458858E-08  -3.17087350288913E-08
     -1.13223461118023E-29
      6.00000000000000E-02
      1.20000000000000E+00   1.19999999998198E+00   0.00000000000000E+00   0.00000000000000E+00   1.44333378260349E-08
      1.65782669070714E-07   1.80216006896749E-07   6.64613249196258E-28   0.00000000000000E+00   1.80216006896751E-11
      0.00000000000000E+00   0.00000000000000E+00  -2.50288388650406E-15  -1.80216004393851E-07  -1.80216006896735E-07
      5.70955915039602E-30
      7.00000000000000E-02
      1.40000000000000E+00   1.39999999989503E+00   0.00000000000000E+00   0.00000000000000E+00   4.74910795879181E-08
      1.00223306700816E-06   1.04972414659608E-06  -1.23299865296582E-28   0.00000000000000E+00   1.04972414659608E-10
      0.00000000000000E+00   0.00000000000000E+00   3.68099452611030E-14  -1.04972418340602E-06  -1.04972414659607E-06
     -3.54186211702533E-29
      8.00000000000000E-02
      1.60000000000000E+00   1.59999999950874E+00   0.00000000000000E+00   0.00000000000000E+00   2.71882430757332E-07
      4.64072348795382E-06   4.91260591871115E-06  -1.97578568608037E-27   0.00000000000000E+00   4.91260591871114E-10
      0.00000000000000E+00   0.00000000000000E+00   2.09217537443201E-13  -4.91260612792868E-06  -4.91260591871114E-06
     -1.97415265539117E-29
      9.00000000000000E-02
      1.80000000000000E+00   1.79999999824128E+00   0.00000000000000E+00   0.00000000000000E+00   1.34244773261482E-06
      1.62448271670946E-05   1.75872748997094E-05   1.33745213445665E-27   0.00000000000000E+00   1.75872748997095E-09
      0.00000000000000E+00   0.00000000000000E+00   7.48733385769850E-13  -1.75872756484428E-05  -1.75872748997094E-05
     -1.35481064585668E-30
      1.00000000000000E-01
      2.00000000000000E+00   1.99999999520207E+00   0.00000000000000E+00   0.00000000000000E+00   4.88962424293402E-06
      4.30897646370633E-05   4.79793888799973E-05   1.00026153844544E-27   0.00000000000000E+00   4.79793888799977E-09
      0.00000000000000E+00   0.00000000000000E+00   1.89562450212734E-12  -4.79793907756222E-05  -4.79793888799976E-05
      1.99350709318912E-29
      1.10000000000000E-01
      2.20000000000000E+00   2.19999998973519E+00   0.00000000000000E+00   0.00000000000000E+00   1.34271286375904E-05
      8.92210405248327E-05   1.02648169162423E-04   3.28628676590337E-27   0.00000000000000E+00   1.02648169162424E-08
      0.00000000000000E+00   0.00000000000000E+00   3.52969543331271E-12  -1.02648172692119E-04  -1.02648169162424E-04
     -1.54835502383621E-30
      1.20000000000000E-01
      2.40000000000000E+00   2.39999998185772E+00   0.00000000000000E+00   0.00000000000000E+00   2.95035276223891E-05
      1.51919401586373E-04   1.81422929208762E-04  -6.24398356409199E-28   0.00000000000000E+00   1.81422929208763E-08
      0.00000000000000E+00   0.00000000000000E+00   5.14817425485829E-12  -1.81422934356937E-04  -1.81422929208763E-04
     -1.40319674035157E-29
      1.30000000000000E-01
      2.60000000000000E+00   2.59999997205831E+00   0.00000000000000E+00   0.00000000000000E+00   5.51250220734408E-05
      2.24291911421680E-04   2.79416933495121E-04  -8.40006793478391E-28   0.00000000000000E+00   2.79416933495121E-08
      0.00000000000000E+00   0.00000000000000E+00   6.29940187413401E-12  -2.79416939794522E-04  -2.79416933495121E-04
     -6.48373666231413E-30
      1.40000000000000E-01
      2.80000000000000E+00   2.79999996088698E+00   0.00000000000000E+00   0.00000000000000E+00   9.18169786929607E-05
      2.99313198723258E-04   3.91130177416219E-04  -1.59693466270907E-27   0.00000000000000E+00   3.91130177416218E-08
      0.00000000000000E+00   0.00000000000000E+00   6.87013908561023E-12  -3.91130184286357E-04  -3.91130177416218E-04
     -2.32253253575432E-29
      1.50000000000000E-01
      3.00000000000000E+00   2.99999994876368E+00   0.00000000000000E+00   0.00000000000000E+00   1.40835009353203E-04
      3.71528188151243E-04   5.12363197504446E-04   1.79710793563440E-27   0.00000000000000E+00   5.12363197504448E-08
      0.00000000000000E+00   0.00000000000000E+00   6.96798172571119E-12  -5.12363204472429E-04  -5.12363197504448E-04
      5.80633133938579E-30
      1.60000000000000E-01
      3.20000000000000E+00   3.19999993585930E+00   0.00000000000000E+00   0.00000000000000E+00   2.03559160953040E-04
      4.37847943969742E-04   6.41407104922782E-04   2.70848421849274E-27   0.00000000000000E+00   6.41407104922781E-08
      0.00000000000000E+00   0.00000000000000E+00   6.68172595068870E-12  -6.41407111604509E-04  -6.41407104922783E-04
     -1.83867159080550E-30
      1.70000000000000E-01
      3.40000000000000E+00   3.39999992210494E+00   0.00000000000000E+00   0.00000000000000E+00   2.81711581401107E-04
      4.97239136525545E-04   7.78950717926652E-04   2.00412784093075E-27   0.00000000000000E+00   7.78950717926649E-08
      0.00000000000000E+00   0.00000000000000E+00   6.03656106993417E-12  -7.78950723963210E-04  -7.78950717926649E-04
     -2.14834259557274E-29
      1.80000000000000E-01
      3.60000000000000E+00   3.59999990728717E+00   0.00000000000000E+00   0.00000000000000E+00   3.77337216006519E-04
      5.49791136362238E-04   9.27128352368757E-04   5.09989435976052E-29   0.00000000000000E+00   9.27128352368753E-08
      0.00000000000000E+00   0.00000000000000E+00   5.02534932369470E-12  -9.27128357394103E-04  -9.27128352368754E-04
      8.32240825311963E-30
      1.90000000000000E-01
      3.80000000000000E+00   3.79999989111420E+00   0.00000000000000E+00   0.00000000000000E+00   4.92716117758317E-04
      5.96141695029048E-04   1.08885781278736E-03  -2.86658578225476E-27   0.00000000000000E+00   1.08885781278736E-07
      0.00000000000000E+00   0.00000000000000E+00   3.62012050944888E-12  -1.08885781640748E-03  -1.08885781278736E-03
      3.87088755959053E-30
      2.00000000000000E-01
      4.00000000000000E+00   3.99999987325971E+00   0.00000000000000E+00   0.00000000000000E+00   6.30284747602815E-04
      6.37118324982493E-04   1.26740307258531E-03   9.06755410834081E-29   0.00000000000000E+00   1.26740307258530E-07
      0.00000000000000E+00   0.00000000000000E+00   1.77523332395939E-12  -1.26740307436053E-03  -1.26740307258530E-03
      2.70962129171337E-30
      2.10000000000000E-01
      4.20000000000000E+00   4.19999985339088E+00   0.00000000000000E+00   0.00000000000000E+00   7.92557856632117E-04
      6.73533346702487E-04   1.46609120333460E-03   3.13880594988297E-27   0.00000000000000E+00   1.46609120333459E-07
      0.00000000000000E+00   0.00000000000000E+00  -5.69174413216881E-13  -1.46609120276541E-03  -1.46609120333459E-03
      4.45152069352910E-30
      2.20000000000000E-01
      4.40000000000000E+00   4.39999983118685E+00   0.00000000000000E+00   0.00000000000000E+00   9.82037603123034E-04
      7.06094001746660E-04   1.68813160486969E-03  -1.43055907678842E-27   0.00000000000000E+00   1.68813160486971E-07
      0.00000000000000E+00   0.00000000000000E+00  -3.48314689580918E-12  -1.68813160138656E-03  -1.68813160486971E-03
      5.32247039443697E-30
      2.30000000000000E-01
      4.60000000000000E+00   4.59999980635137E+00   0.00000000000000E+00   0.00000000000000E+00   1.20110682964578E-03
      7.35379545435932E-04   1.93648637508171E-03   1.19116887427499E-27   0.00000000000000E+00   1.93648637508171E-07
      0.00000000000000E+00   0.00000000000000E+00  -7.04240305897650E-12  -1.93648636803931E-03  -1.93648637508172E-03
     -1.34513342695771E-29
      2.40000000000000E-01
      4.80000000000000E+00   4.79999977862179E+00   0.00000000000000E+00   0.00000000000000E+00   1.45193149905780E-03
      7.61850501023347E-04   2.21378200008114E-03  -3.26168243685272E-27   0.00000000000000E+00   2.21378200008115E-07
      0.00000000000000E+00   0.00000000000000E+00  -1.13232122299083E-11  -2.21378198875794E-03  -2.21378200008115E-03
     -8.03209168615034E-30
      2.50000000000000E-01
      5.00000000000000E+00   4.99999974777196E+00   0.00000000000000E+00   0.00000000000000E+00   1.73641124143685E-03
      7.85869255706936E-04   2.52228049714378E-03  -6.34803786030323E-27   0.00000000000000E+00   2.52228049714378E-07
      0.00000000000000E+00   0.00000000000000E+00  -1.63968117005195E-11  -2.52228048074697E-03  -2.52228049714378E-03
      1.09352573558432E-29
      2.60000000000000E-01
      5.20000000000000E+00   5.19999971361045E+00   0.00000000000000E+00   0.00000000000000E+00   2.05617293359555E-03
      8.07722204102030E-04   2.86389513769758E-03  -2.24332449906619E-27   0.00000000000000E+00   2.86389513769758E-07
      0.00000000000000E+00   0.00000000000000E+00  -2.23234811913058E-11  -2.86389511537409E-03  -2.86389513769757E-03
     -1.18062070567511E-29
      2.70000000000000E-01
      5.40000000000000E+00   5.39999967597805E+00   0.00000000000000E+00   0.00000000000000E+00   2.41257968468205E-03
      8.27639479611221E-04   3.24021916429327E-03   1.28213473192537E-27   0.00000000000000E+00   3.24021916429326E-07
      0.00000000000000E+00   0.00000000000000E+00  -2.91465441933748E-11  -3.24021913514672E-03  -3.24021916429326E-03
      1.06449407888739E-30
      2.80000000000000E-01
      5.60000000000000E+00   5.59999963474499E+00   0.00000000000000E+00   0.00000000000000E+00   2.80673951477773E-03
      8.45810767437022E-04   3.65255028221475E-03  -8.22566025717711E-27   0.00000000000000E+00   3.65255028221473E-07
      0.00000000000000E+00   0.00000000000000E+00  -3.68869204981828E-11  -3.65255024532782E-03  -3.65255028221474E-03
      3.58057099262124E-30
      2.90000000000000E-01
      5.80000000000000E+00   5.79999958980953E+00   0.00000000000000E+00   0.00000000000000E+00   3.23950797821795E-03
      8.62397068200503E-04   4.10190504641846E-03   2.07363446567264E-27   0.00000000000000E+00   4.10190504641844E-07
      0.00000000000000E+00   0.00000000000000E+00  -4.55388782851626E-11  -4.10190500087957E-03  -4.10190504641845E-03
      0.00000000000000E+00
      3.00000000000000E-01
      6.00000000000000E+00   5.99999954109781E+00   0.00000000000000E+00   0.00000000000000E+00   3.71148287653531E-03
      8.77539016486656E-04   4.58902189302196E-03  -5.50416017926525E-28   0.00000000000000E+00   4.58902189302196E-07
      0.00000000000000E+00   0.00000000000000E+00  -5.50678907805907E-11  -4.58902183795407E-03  -4.58902189302196E-03
     -6.58050885130389E-30
      3.10000000000000E-01
      6.20000000000000E+00   6.19999948856448E+00   0.00000000000000E+00   0.00000000000000E+00   4.22299252262053E-03
      8.91362557072684E-04   5.11435507969322E-03  -7.47398227919913E-27   0.00000000000000E+00   5.11435507969322E-07
      0.00000000000000E+00   0.00000000000000E+00  -6.54128330764149E-11  -5.11435501428039E-03  -5.11435507969322E-03
      1.87738046640140E-29
      3.20000000000000E-01
      6.40000000000000E+00   6.39999943219354E+00   0.00000000000000E+00   0.00000000000000E+00   4.77408189535374E-03
      9.03982695288548E-04   5.67806459064229E-03   4.73336969396179E-28   0.00000000000000E+00   5.67806459064227E-07
      0.00000000000000E+00   0.00000000000000E+00  -7.64960250590837E-11  -5.67806451414626E-03  -5.67806459064228E-03
     -1.73222218291676E-29
      3.30000000000000E-01
      6.60000000000000E+00   6.59999937199917E+00   0.00000000000000E+00   0.00000000000000E+00   5.36450273564811E-03
      9.15505868195244E-04   6.28000860384335E-03   2.09753719635312E-29   0.00000000000000E+00   6.28000860384335E-07
      0.00000000000000E+00   0.00000000000000E+00  -8.82422989382739E-11  -6.28000851560105E-03  -6.28000860384335E-03
     -1.01610798439251E-29
      3.40000000000000E-01
      6.80000000000000E+00   6.79999930802550E+00   0.00000000000000E+00   0.00000000000000E+00   5.99371352335097E-03
      9.26031336208862E-04   6.91974485955984E-03   7.65499465870448E-27   0.00000000000000E+00   6.91974485955979E-07
      0.00000000000000E+00   0.00000000000000E+00  -1.00601024407610E-10  -6.91974475895877E-03  -6.91974485955980E-03
      1.16126626787716E-29
      3.50000000000000E-01
      7.00000000000000E+00   6.99999924034546E+00   0.00000000000000E+00   0.00000000000000E+00   6.66089355053278E-03
      9.35651888287516E-04   7.59654543882030E-03   3.44852534074470E-27   0.00000000000000E+00   7.59654543882032E-07
      0.00000000000000E+00   0.00000000000000E+00  -1.13501767864580E-10  -7.59654532531854E-03  -7.59654543882031E-03
     -6.19342009534484E-30
      3.60000000000000E-01
      7.20000000000000E+00   7.19999916905740E+00   0.00000000000000E+00   0.00000000000000E+00   7.36497187144976E-03
      9.44454106348337E-04   8.30942597779809E-03   2.39203916049621E-27   0.00000000000000E+00   8.30942597779808E-07
      0.00000000000000E+00   0.00000000000000E+00  -1.26145485606204E-10  -8.30942585165261E-03  -8.30942597779809E-03
     -1.10320295448330E-29
      3.70000000000000E-01
      7.40000000000000E+00   7.39999909428113E+00   0.00000000000000E+00   0.00000000000000E+00   8.10466985263203E-03
      9.52518368454736E-04   9.05718822108677E-03  -5.87576538498594E-28   0.00000000000000E+00   9.05718822108678E-07
      0.00000000000000E+00   0.00000000000000E+00   1.02282567149100E-09  -9.05718924391244E-03  -9.05718822108676E-03
     -9.09658576503773E-30
      3.80000000000000E-01
      7.60000000000000E+00   7.59999901615286E+00   0.00000000000000E+00   0.00000000000000E+00   8.87855311798053E-03
      9.59918743713773E-04   9.83847186169430E-03   2.74670923314369E-27   0.00000000000000E+00   9.83847186169425E-07
      0.00000000000000E+00   0.00000000000000E+00   1.86668445942501E-07  -9.83865853014020E-03  -9.83847186169426E-03
     -3.19348223666218E-30
      3.90000000000000E-01
      7.80000000000000E+00   7.79999893481912E+00   0.00000000000000E+00   0.00000000000000E+00   9.68508578242122E-03
      9.66722878862981E-04   1.06518086612842E-02   2.48583560467454E-27   0.00000000000000E+00   1.06518086612842E-06
      0.00000000000000E+00   0.00000000000000E+00   2.54300707170980E-06  -1.06543516683559E-02  -1.06518086612842E-02
      9.67721889897631E-31
      4.00000000000000E-01
      8.00000000000000E+00   7.99999885043248E+00   0.00000000000000E+00   0.00000000000000E+00   1.05226838732470E-02
      9.72991989590201E-04   1.14956758628372E-02  -4.31700735083333E-28   0.00000000000000E+00   1.14956758628372E-06
      0.00000000000000E+00   0.00000000000000E+00   1.27105963056502E-05  -1.15083864591429E-02  -1.14956758628372E-02
     -2.17737425226967E-29
      4.10000000000000E-01
      8.20000000000000E+00   8.19999876314494E+00   0.00000000000000E+00   0.00000000000000E+00   1.13897698682623E-02
      9.78781008065165E-04   1.23685508763275E-02  -8.35932684321922E-27   0.00000000000000E+00   1.23685508763275E-06
      0.00000000000000E+00   0.00000000000000E+00   3.83811613129786E-05  -1.24069320376404E-02  -1.23685508763275E-02
      2.12898815777479E-30
      4.20000000000000E-01
      8.40000000000000E+00   8.39999867310413E+00   0.00000000000000E+00   0.00000000000000E+00   1.22848200902819E-02
      9.84138829576886E-04   1.32689589198588E-02   1.28465080883911E-29   0.00000000000000E+00   1.32689589198588E-06
      0.00000000000000E+00   0.00000000000000E+00   8.68499932226370E-05  -1.33558089130814E-02  -1.32689589198588E-02
     -1.54835502383621E-29
      4.30000000000000E-01
      8.60000000000000E+00   8.59999858044921E+00   0.00000000000000E+00   0.00000000000000E+00   1.32063992623002E-02
      9.89108644031741E-04   1.41955079063319E-02  -2.67734776668528E-27   0.00000000000000E+00   1.41955079063319E-06
      0.00000000000000E+00   0.00000000000000E+00   1.64071081448359E-04  -1.43595789877803E-02  -1.41955079063319E-02
      5.90310352837555E-30
      4.40000000000000E-01
      8.80000000000000E+00   8.79999848530869E+00   0.00000000000000E+00   0.00000000000000E+00   1.41531845479323E-02
      9.93728342676186E-04   1.51469128906085E-02   4.19870334979335E-27   0.00000000000000E+00   1.51469128906084E-06
      0.00000000000000E+00   0.00000000000000E+00   2.74748342704648E-04  -1.54216612333131E-02  -1.51469128906085E-02
      1.06449407888739E-30
      4.50000000000000E-01
      9.00000000000001E+00   8.99999838780008E+00   0.00000000000000E+00   0.00000000000000E+00   1.51239699159882E-02
      9.98028908156080E-04   1.61219988241443E-02  -4.09060881469178E-27   0.00000000000000E+00   1.61219988241443E-06
      0.00000000000000E+00   0.00000000000000E+00   4.22713755465444E-04  -1.65447125796098E-02  -1.61219988241443E-02
      1.80963993410857E-29
      4.60000000000000E-01
      9.20000000000000E+00   9.19999828802571E+00   0.00000000000000E+00   0.00000000000000E+00   1.61176999824752E-02
      1.00204332291638E-03   1.71197433053915E-02   5.86686234359889E-27   0.00000000000000E+00   1.71197433053916E-06
      0.00000000000000E+00   0.00000000000000E+00   6.11266351021380E-04  -1.77310096564130E-02  -1.71197433053916E-02
      1.72254496401778E-29
      4.70000000000000E-01
      9.40000000000001E+00   9.39999818607942E+00   0.00000000000000E+00   0.00000000000000E+00   1.71334111780271E-02
      1.00579479463575E-03   1.81392059726629E-02  -6.13780027972297E-27   0.00000000000000E+00   1.81392059726628E-06
      0.00000000000000E+00   0.00000000000000E+00   8.43416064569756E-04  -1.89826220372326E-02  -1.81392059726629E-02
      3.96765974858029E-30
      4.80000000000000E-01
      9.60000000000000E+00   9.59999808204523E+00   0.00000000000000E+00   0.00000000000000E+00   1.81702423015904E-02
      1.00930558473490E-03   1.91795478863253E-02   5.38554166861105E-27   0.00000000000000E+00   1.91795478863252E-06
      0.00000000000000E+00   0.00000000000000E+00   1.12203694942479E-03  -2.03015848357500E-02  -1.91795478863253E-02
      1.29674733246283E-29
      4.90000000000000E-01
      9.80000000000001E+00   9.79999797600073E+00   0.00000000000000E+00   0.00000000000000E+00   1.92273967966399E-02
      1.01259563919603E-03   2.02399924358359E-02   5.79636380391984E-27   0.00000000000000E+00   2.02399924358360E-06
      0.00000000000000E+00   0.00000000000000E+00   1.44999899076217E-03  -2.16899914265982E-02  -2.02399924358360E-02
      1.64512721282597E-30
      5.00000000000000E-01
      1.00000000000000E+01   9.99999786801983E+00   0.00000000000000E+00   0.00000000000000E+00   2.03041167672951E-02
      1.01568554065589E-03   2.13198023079510E-02   8.30837628571611E-28   0.00000000000000E+00   2.13198023079509E-06
      0.00000000000000E+00   0.00000000000000E+00   1.83032702039268E-03  -2.31501293283436E-02  -2.13198023079509E-02
      3.58057099262124E-30
      5.10000000000000E-01
      1.02000000000000E+01   1.01999977581795E+01   0.00000000000000E+00   0.00000000000000E+00   2.13996173068557E-02
      1.01858758863161E-03   2.24182048954873E-02   3.28853671929738E-27   0.00000000000000E+00   2.24182048954873E-06
      0.00000000000000E+00   0.00000000000000E+00   2.26640222162438E-03  -2.46846071171116E-02  -2.24182048954872E-02
      1.05481685998842E-29
      5.20000000000000E-01
      1.04000000000000E+01   1.03999976465569E+01   0.00000000000000E+00   0.00000000000000E+00   2.25131109575483E-02
      1.02132022484889E-03   2.35344311823972E-02   5.39940428468383E-28   0.00000000000000E+00   2.35344311823973E-06
      0.00000000000000E+00   0.00000000000000E+00   2.76197066475439E-03  -2.62964018471516E-02  -2.35344311823972E-02
     -1.20965236237204E-29
      5.30000000000000E-01
      1.06000000000000E+01   1.05999975332341E+01   0.00000000000000E+00   0.00000000000000E+00   2.36437603847205E-02
      1.02389883716982E-03   2.46676592218903E-02  -1.27683645457818E-27   0.00000000000000E+00   2.46676592218903E-06
      0.00000000000000E+00   0.00000000000000E+00   3.32113428066186E-03  -2.79887935025521E-02  -2.46676592218902E-02
      8.41918044210939E-30
      5.40000000000000E-01
      1.08000000000000E+01   1.07999974182975E+01   0.00000000000000E+00   0.00000000000000E+00   2.47906859480031E-02
      1.02633814761703E-03   2.58170240956201E-02  -5.85058042280136E-27   0.00000000000000E+00   2.58170240956202E-06
      0.00000000000000E+00   0.00000000000000E+00   3.94825822328850E-03  -2.97652823189087E-02  -2.58170240956202E-02
     -3.67734318161100E-30
      5.50000000000000E-01
      1.10000000000000E+01   1.09999973018372E+01   0.00000000000000E+00   0.00000000000000E+00   2.59529759148473E-02
      1.02865212823132E-03   2.69816280430786E-02  -3.22541705902881E-28   0.00000000000000E+00   2.69816280430785E-06
      0.00000000000000E+00   0.00000000000000E+00   4.64790890831281E-03  -3.16295369513913E-02  -2.69816280430785E-02
      1.93544377979526E-30
      5.60000000000000E-01
      1.12000000000000E+01   1.11999971839442E+01   0.00000000000000E+00   0.00000000000000E+00   2.71297040103621E-02
      1.03085388412074E-03   2.81605578944829E-02   5.48865243597964E-27   0.00000000000000E+00   2.81605578944828E-06
      0.00000000000000E+00   0.00000000000000E+00   5.42482336010657E-03  -3.35853812545893E-02  -2.81605578944828E-02
     -8.51595263109916E-30
      5.70000000000000E-01
      1.14000000000000E+01   1.13999970647094E+01   0.00000000000000E+00   0.00000000000000E+00   2.83199497500557E-02
      1.03295553571416E-03   2.93529052857698E-02  -3.10904850176862E-28   0.00000000000000E+00   2.93529052857697E-06
      0.00000000000000E+00   0.00000000000000E+00   6.28388477724249E-03  -3.56367900630123E-02  -2.93529052857698E-02
     -9.72560499347120E-30
      5.80000000000000E-01
      1.16000000000000E+01   1.15999969442215E+01   0.00000000000000E+00   0.00000000000000E+00   2.95228177593645E-02
      1.03496813559160E-03   3.05577858949561E-02  -7.96565757840887E-27   0.00000000000000E+00   3.05577858949560E-06
      0.00000000000000E+00   0.00000000000000E+00   7.23009386798247E-03  -3.77878797629385E-02  -3.05577858949560E-02
      1.44674422539696E-29
      5.90000000000000E-01
      1.18000000000000E+01   1.17999968225645E+01   0.00000000000000E+00   0.00000000000000E+00   3.07374536727409E-02
      1.03690163387828E-03   3.17743553066192E-02   1.11943648918633E-27   0.00000000000000E+00   3.17743553066193E-06
      0.00000000000000E+00   0.00000000000000E+00   8.26854761168483E-03  -4.00429029183041E-02  -3.17743553066193E-02
      9.48367452099679E-30
      6.00000000000000E-01
      1.20000000000000E+01   1.19999966998179E+01   0.00000000000000E+00   0.00000000000000E+00   3.19630556266218E-02
      1.03876489121558E-03   3.30018205178374E-02  -1.92871811266047E-27   0.00000000000000E+00   3.30018205178373E-06
      0.00000000000000E+00   0.00000000000000E+00   9.40443659749629E-03  -4.24062571153336E-02  -3.30018205178373E-02
     -5.37085648893185E-30
      6.10000000000000E-01
      1.22000000000000E+01   1.21999965760553E+01   0.00000000000000E+00   0.00000000000000E+00   3.31988814191195E-02
      1.04056572972570E-03   3.42394471488452E-02   1.56606675372606E-26   0.00000000000000E+00   3.42394471488450E-06
      0.00000000000000E+00   0.00000000000000E+00   1.06430569228037E-02  -4.48825040716488E-02  -3.42394471488451E-02
     -1.81931715300755E-29
      6.20000000000000E-01
      1.24000000000000E+01   1.23999964513437E+01   0.00000000000000E+00   0.00000000000000E+00   3.44442520129471E-02
      1.04231100945798E-03   3.54865630224051E-02  -2.96783368498530E-27   0.00000000000000E+00   3.54865630224049E-06
      0.00000000000000E+00   0.00000000000000E+00   1.19898267259083E-02  -4.74763897483133E-02  -3.54865630224050E-02
     -2.99993785868266E-30
      6.30000000000000E-01
      1.26000000000000E+01   1.25999963257441E+01   0.00000000000000E+00   0.00000000000000E+00   3.56985522636007E-02
      1.04400671857873E-03   3.67425589821794E-02  -5.43666157744489E-27   0.00000000000000E+00   3.67425589821793E-06
      0.00000000000000E+00   0.00000000000000E+00   1.34503038818518E-02  -5.01928628640310E-02  -3.67425589821792E-02
     -7.20952807973735E-30
      6.40000000000000E-01
      1.28000000000000E+01   1.27999961993112E+01   0.00000000000000E+00   0.00000000000000E+00   3.69612297123389E-02
      1.04565806807234E-03   3.80068877804113E-02  -4.49603590046440E-27   0.00000000000000E+00   3.80068877804112E-06
      0.00000000000000E+00   0.00000000000000E+00   1.50302071782120E-02  -5.30370949586232E-02  -3.80068877804111E-02
      5.41924258342674E-30
      6.50000000000000E-01
      1.30000000000000E+01   1.29999960720939E+01   0.00000000000000E+00   0.00000000000000E+00   3.82317921432389E-02
      1.04726958457030E-03   3.92790617278092E-02  -1.10668675328693E-26   0.00000000000000E+00   3.92790617278091E-06
      0.00000000000000E+00   0.00000000000000E+00   1.67354419716292E-02  -5.60145036994383E-02  -3.92790617278091E-02
      1.34997203640720E-29
      6.60000000000000E-01
      1.32000000000000E+01   1.31999959441351E+01   0.00000000000000E+00   0.00000000000000E+00   3.95098044422098E-02
      1.04884519739144E-03   4.05586496396012E-02  -1.47882420604707E-27   0.00000000000000E+00   4.05586496396011E-06
      0.00000000000000E+00   0.00000000000000E+00   1.85721284887888E-02  -5.91307781283898E-02  -4.05586496396011E-02
     -1.02578520329149E-29
      6.70000000000000E-01
      1.34000000000000E+01   1.33999958154726E+01   0.00000000000000E+00   0.00000000000000E+00   4.07948851517574E-02
      1.05038831770154E-03   4.18452734694590E-02  -5.16666717016345E-27   0.00000000000000E+00   4.18452734694590E-06
      0.00000000000000E+00   0.00000000000000E+00   2.05466314927482E-02  -6.23919049622072E-02  -4.18452734694590E-02
     -3.33864052014683E-30
      6.80000000000000E-01
      1.36000000000000E+01   1.35999956861396E+01   0.00000000000000E+00   0.00000000000000E+00   4.20867030311064E-02
      1.05190190879719E-03   4.31386049399036E-02  -1.72244819182879E-27   0.00000000000000E+00   4.31386049399037E-06
      0.00000000000000E+00   0.00000000000000E+00   2.26655920212099E-02  -6.58041969611135E-02  -4.31386049399036E-02
     -3.77411537060076E-30
      6.90000000000000E-01
      1.38000000000000E+01   1.37999955561638E+01   0.00000000000000E+00   0.00000000000000E+00   4.33849739449978E-02
      1.05338854686250E-03   4.44383624918603E-02  -1.84048606934906E-27   0.00000000000000E+00   4.44383624918605E-06
      0.00000000000000E+00   0.00000000000000E+00   2.49359622832016E-02  -6.93743247750621E-02  -4.44383624918604E-02
     -1.03546242219047E-29
      7.00000000000000E-01
      1.40000000000000E+01   1.39999954255692E+01   0.00000000000000E+00   0.00000000000000E+00   4.46894583889896E-02
      1.05485047173970E-03   4.57443088607293E-02  -1.05541200895071E-26   0.00000000000000E+00   4.57443088607293E-06
      0.00000000000000E+00   0.00000000000000E+00   2.73650440693762E-02  -7.31093529301054E-02  -4.57443088607293E-02
      1.93544377979526E-30
      7.10000000000000E-01
      1.42000000000000E+01   1.41999952943751E+01   0.00000000000000E+00   0.00000000000000E+00   4.59999594715927E-02
      1.05628962924452E-03   4.70562491008372E-02  -2.42274013745322E-27   0.00000000000000E+00   4.70562491008372E-06
      0.00000000000000E+00   0.00000000000000E+00   2.99605301747155E-02  -7.70167792755528E-02  -4.70562491008373E-02
     -5.66117305590114E-30
      7.20000000000000E-01