DF-ISE text

Info {
  version   = 1.0
  type      = xyplot
  datasets  = [
    "time"
    "ntype OuterVoltage" "ntype InnerVoltage" "ntype QuasiFermiPotential" "ntype DisplacementCurrent" "ntype eCurrent"
    "ntype hCurrent" "ntype TotalCurrent" "ntype Charge" "ptype OuterVoltage" "ptype InnerVoltage"
    "ptype QuasiFermiPotential" "ptype DisplacementCurrent" "ptype eCurrent" "ptype hCurrent" "ptype TotalCurrent"
    "ptype Charge" ]
  functions = [
    Time
    OuterVoltage InnerVoltage QuasiFermiPotential DisplacementCurrent eCurrent
    hCurrent TotalCurrent Charge OuterVoltage InnerVoltage
    QuasiFermiPotential DisplacementCurrent eCurrent hCurrent TotalCurrent
    Charge ]
}

Data {
      1.00000000000000E-02
      2.00000000000000E-01   1.99999999999698E-01   0.00000000000000E+00   0.00000000000000E+00   2.76376078859573E-09
      2.69295555113934E-10   3.03305634370967E-09   3.46873130765290E-29   0.00000000000000E+00   3.03305634370960E-13
      0.00000000000000E+00   0.00000000000000E+00  -3.05228445246282E-13  -3.03275111526233E-09  -3.03305634370757E-09
     -2.63704214997105E-30
      2.00000000000000E-02
      4.00000000000000E-01   3.99999999999468E-01   0.00000000000000E+00   0.00000000000000E+00   4.87754824986132E-09
      4.43277721772170E-10   5.32082597163349E-09  -4.24541577683998E-28   0.00000000000000E+00   5.32082597163350E-13
      0.00000000000000E+00   0.00000000000000E+00  -3.09588185556024E-13  -5.32051638344897E-09  -5.32082597163453E-09
      7.25791417423224E-32
      3.00000000000000E-02
      6.00000000000000E-01   5.99999999999263E-01   0.00000000000000E+00   0.00000000000000E+00   6.78968046457067E-09
      5.88360797107509E-10   7.37804126167818E-09   1.84126492481347E-27   0.00000000000000E+00   7.37804126167817E-13
      0.00000000000000E+00   0.00000000000000E+00  -3.13792229887107E-13  -7.37772746944908E-09  -7.37804126167896E-09
      2.17737425226967E-31
      4.00000000000000E-02
      8.00000000000000E-01   7.99999999999104E-01   0.00000000000000E+00   0.00000000000000E+00   8.23109056594738E-09
      6.94018720837313E-10   8.92510928678470E-09  -3.60484058818223E-28   0.00000000000000E+00   8.92510928678468E-13
      0.00000000000000E+00   0.00000000000000E+00  -3.17971744653113E-13  -8.92479131503384E-09  -8.92510928677849E-09
      7.01598370175783E-30
      5.00000000000000E-02
      1.00000000000000E+00   9.99999999998901E-01   0.00000000000000E+00   0.00000000000000E+00   1.01600135999248E-08
      8.31895495963000E-10   1.09919090958878E-08  -4.53690249346168E-27   0.00000000000000E+00   1.09919090958878E-12
      0.00000000000000E+00   0.00000000000000E+00  -3.22036241493943E-13  -1.09915870596453E-08  -1.09919090958868E-08
      1.23384540961948E-30
      6.00000000000000E-02
      1.20000000000000E+00   1.19999999999873E+00   0.00000000000000E+00   0.00000000000000E+00   1.17300662597135E-08
      9.53126713548706E-10   1.26831929732622E-08  -3.72745265270590E-27   0.00000000000000E+00   1.26831929732622E-12
      0.00000000000000E+00   0.00000000000000E+00  -3.25713458348921E-13  -1.26828672598028E-08  -1.26831929732611E-08
     -5.83052438663323E-30
      7.00000000000000E-02
      1.40000000000000E+00   1.39999999999858E+00   0.00000000000000E+00   0.00000000000000E+00   1.31355003823479E-08
      1.10181614152411E-09   1.42373165238720E-08   4.03737201422379E-27   0.00000000000000E+00   1.42373165238720E-12
      0.00000000000000E+00   0.00000000000000E+00  -3.28985384404767E-13  -1.42369875384871E-08  -1.42373165238715E-08
      3.38702661464171E-31
      8.00000000000000E-02
      1.60000000000000E+00   1.59999999999836E+00   0.00000000000000E+00   0.00000000000000E+00   1.48877222471926E-08
      1.44002029110941E-09   1.63277425383020E-08   9.92125000838125E-27   0.00000000000000E+00   1.63277425383019E-12
      0.00000000000000E+00   0.00000000000000E+00  -3.31979725240792E-13  -1.63274105585810E-08  -1.63277425383062E-08
      2.44349777199152E-30
      9.00000000000000E-02
      1.80000000000000E+00   1.79999999999810E+00   0.00000000000000E+00   0.00000000000000E+00   1.64675635032400E-08
      2.53600610600668E-09   1.90035696092467E-08  -9.46076899748255E-27   0.00000000000000E+00   1.90035696092466E-12
      0.00000000000000E+00   0.00000000000000E+00  -3.34771848191223E-13  -1.90032348373918E-08  -1.90035696092400E-08
     -3.38702661464171E-31
      1.00000000000000E-01
      2.00000000000000E+00   1.99999999999751E+00   0.00000000000000E+00   0.00000000000000E+00   1.81537306598045E-08
      6.83884738774054E-09   2.49925780475451E-08  -1.81181126009903E-27   0.00000000000000E+00   2.49925780475451E-12
      0.00000000000000E+00   0.00000000000000E+00  -3.37810274971285E-13  -2.49922402372733E-08  -2.49925780475483E-08
     -2.90316566969289E-30
      1.10000000000000E-01
      2.20000000000000E+00   2.19999999999573E+00   0.00000000000000E+00   0.00000000000000E+00   1.95783245772127E-08
      2.31909273289350E-08   4.27692519061478E-08  -5.29162425919649E-29   0.00000000000000E+00   4.27692519061477E-12
      0.00000000000000E+00   0.00000000000000E+00  -3.42387609574837E-13  -4.27689095185409E-08  -4.27692519061504E-08
     -3.87088755959053E-30
      1.20000000000000E-01
      2.40000000000000E+00   2.39999999998962E+00   0.00000000000000E+00   0.00000000000000E+00   2.28564350940231E-08
      8.10160291566187E-08   1.03872464250642E-07  -8.37230641306748E-30   0.00000000000000E+00   1.03872464250643E-11
      0.00000000000000E+00   0.00000000000000E+00  -3.53150605684163E-13  -1.03872111100036E-07  -1.03872464250642E-07
      2.90316566969289E-31
      1.30000000000000E-01
      2.60000000000000E+00   2.59999999997009E+00   0.00000000000000E+00   0.00000000000000E+00   3.37807416950384E-08
      2.65211273158440E-07   2.98992014853478E-07   1.88232794456351E-27   0.00000000000000E+00   2.98992014853478E-11
      0.00000000000000E+00   0.00000000000000E+00  -3.83430591742319E-13  -2.98991631422887E-07  -2.98992014853479E-07
     -2.73381433896081E-30
      1.40000000000000E-01
      2.80000000000000E+00   2.79999999991449E+00   0.00000000000000E+00   0.00000000000000E+00   7.14531892324611E-08
      7.83750473833147E-07   8.55203663065608E-07   5.54404846591447E-27   0.00000000000000E+00   8.55203663065616E-11
      0.00000000000000E+00   0.00000000000000E+00  -4.66657204702938E-13  -8.55203196408414E-07  -8.55203663065618E-07
      9.89495632420328E-30
      1.50000000000000E-01
      3.00000000000000E+00   2.99999999977492E+00   0.00000000000000E+00   0.00000000000000E+00   1.92672398284679E-07
      2.05821710631765E-06   2.25088950460233E-06  -1.56521757776768E-27   0.00000000000000E+00   2.25088950460234E-10
      0.00000000000000E+00   0.00000000000000E+00  -6.73550506505635E-13  -2.25088883105183E-06  -2.25088950460233E-06
     -8.95142748155309E-31
      1.60000000000000E-01
      3.20000000000000E+00   3.19999999947106E+00   0.00000000000000E+00   0.00000000000000E+00   5.26128007873987E-07
      4.76323730046319E-06   5.28936530833718E-06  -2.76760597770367E-27   0.00000000000000E+00   5.28936530833719E-10
      0.00000000000000E+00   0.00000000000000E+00  -1.12415254657193E-12  -5.28936418418464E-06  -5.28936530833718E-06
     -2.66123519721849E-31
      1.70000000000000E-01
      3.40000000000000E+00   3.39999999890217E+00   0.00000000000000E+00   0.00000000000000E+00   1.29156614815717E-06
      9.68668940127299E-06   1.09782555494302E-05  -2.46497514968543E-27   0.00000000000000E+00   1.09782555494301E-09
      0.00000000000000E+00   0.00000000000000E+00  -1.97351445602652E-12  -1.09782535759157E-05  -1.09782555494302E-05
     -1.54835502383621E-30
      1.80000000000000E-01
      3.60000000000000E+00   3.59999999798194E+00   0.00000000000000E+00   0.00000000000000E+00   2.76806183706366E-06
      1.74126490067417E-05   2.01807108438053E-05   1.16296159566302E-26   0.00000000000000E+00   2.01807108438054E-09
      0.00000000000000E+00   0.00000000000000E+00  -3.36626141132424E-12  -2.01807074775440E-05  -2.01807108438054E-05
      1.00159215604405E-29
      1.90000000000000E-01
      3.80000000000000E+00   3.79999999666926E+00   0.00000000000000E+00   0.00000000000000E+00   5.22238232486250E-06
      2.80851717063263E-05   3.33075540311888E-05  -1.93733083748056E-27   0.00000000000000E+00   3.33075540311888E-09
      0.00000000000000E+00   0.00000000000000E+00  -5.39663063175729E-12  -3.33075486345582E-05  -3.33075540311888E-05
     -1.04030103163995E-30
      2.00000000000000E-01
      4.00000000000000E+00   3.99999999496988E+00   0.00000000000000E+00   0.00000000000000E+00   8.85673776256685E-06
      4.14441606030725E-05   5.03008983656394E-05   5.06067743017242E-27   0.00000000000000E+00   5.03008983656386E-09
      0.00000000000000E+00   0.00000000000000E+00  -8.10725195097286E-12  -5.03008902583867E-05  -5.03008983656387E-05
      1.01610798439251E-30
      2.10000000000000E-01
      4.20000000000000E+00   4.19999999291828E+00   0.00000000000000E+00   0.00000000000000E+00   1.38025475707834E-05
      5.70144941981441E-05   7.08170417689275E-05   8.50119487227822E-28   0.00000000000000E+00   7.08170417689272E-09
      0.00000000000000E+00   0.00000000000000E+00  -1.15122437997108E-11  -7.08170302566834E-05  -7.08170417689272E-05
     -2.17737425226967E-31
      2.20000000000000E-01
      4.40000000000000E+00   4.39999999055915E+00   0.00000000000000E+00   0.00000000000000E+00   2.01391628337904E-05
      7.42694765300943E-05   9.44086393638847E-05  -3.45821465616730E-27   0.00000000000000E+00   9.44086393638850E-09
      0.00000000000000E+00   0.00000000000000E+00  -1.56155465983794E-11  -9.44086237483383E-05  -9.44086393638849E-05
      6.04826181186020E-31
      2.30000000000000E-01
      4.60000000000000E+00   4.59999998793674E+00   0.00000000000000E+00   0.00000000000000E+00   2.79145571407950E-05
      9.27179216950223E-05   1.20632478835817E-04  -1.43513156271819E-28   0.00000000000000E+00   1.20632478835817E-08
      0.00000000000000E+00   0.00000000000000E+00  -2.04145129758096E-11  -1.20632458421304E-04  -1.20632478835817E-04
      3.21767528390962E-30
      2.40000000000000E-01
      4.80000000000000E+00   4.79999998509021E+00   0.00000000000000E+00   0.00000000000000E+00   3.71602181717523E-05
      1.11937487138099E-04   1.49097705309851E-04  -1.83234510895029E-27   0.00000000000000E+00   1.49097705309851E-08
      0.00000000000000E+00   0.00000000000000E+00  -2.58937901548375E-11  -1.49097679416061E-04  -1.49097705309851E-04
      2.78220043345569E-30
      2.50000000000000E-01
      5.00000000000000E+00   4.99999998205087E+00   0.00000000000000E+00   0.00000000000000E+00   4.79036633969977E-05
      1.31587878603458E-04   1.79491542000456E-04   5.07042722821313E-27   0.00000000000000E+00   1.79491542000456E-08
      0.00000000000000E+00   0.00000000000000E+00  -3.20200059919551E-11  -1.79491509980450E-04  -1.79491542000456E-04
      1.54835502383621E-30
      2.60000000000000E-01
      5.20000000000000E+00   5.19999997883745E+00   0.00000000000000E+00   0.00000000000000E+00   6.01901199386983E-05
      1.51435287548466E-04   2.11625407487165E-04  -1.67609431330270E-27   0.00000000000000E+00   2.11625407487164E-08
      0.00000000000000E+00   0.00000000000000E+00  -3.87493326182167E-11  -2.11625368737832E-04  -2.11625407487165E-04
     -6.29019228433460E-30
      2.70000000000000E-01
      5.40000000000000E+00   5.39999997545581E+00   0.00000000000000E+00   0.00000000000000E+00   7.40927017947130E-05
      1.71349513753422E-04   2.45442215548135E-04   4.36800629443094E-27   0.00000000000000E+00   2.45442215548135E-08
      0.00000000000000E+00   0.00000000000000E+00  -4.60353057519159E-11  -2.45442169512829E-04  -2.45442215548135E-04
     -2.46769081923896E-30
      2.80000000000000E-01
      5.60000000000000E+00   5.59999997194233E+00   0.00000000000000E+00   0.00000000000000E+00   8.95633203468211E-05
      1.91013645757353E-04   2.80576966104175E-04   2.10975468521307E-27   0.00000000000000E+00   2.80576966104172E-08
      0.00000000000000E+00   0.00000000000000E+00  -5.37411952933701E-11  -2.80576912362977E-04  -2.80576966104172E-04
      4.83860944948816E-32
      2.90000000000000E-01
      5.80000000000000E+00   5.79999996832748E+00   0.00000000000000E+00   0.00000000000000E+00   1.06545745080636E-04
      2.10179179257234E-04   3.16724924337869E-04   8.42208360777909E-28   0.00000000000000E+00   3.16724924337866E-08
      0.00000000000000E+00   0.00000000000000E+00  -6.17286071838876E-11  -3.16724862609259E-04  -3.16724924337866E-04
     -1.18545931512460E-30
      3.00000000000000E-01
      6.00000000000000E+00   5.99999996462381E+00   0.00000000000000E+00   0.00000000000000E+00   1.25029290571414E-04
      2.28732652163033E-04   3.53761942734447E-04   2.04324799832986E-27   0.00000000000000E+00   3.53761942734444E-08
      0.00000000000000E+00   0.00000000000000E+00  -6.98985111021347E-11  -3.53761872835932E-04  -3.53761942734444E-04
      7.25791417423224E-32
      3.10000000000000E-01
      6.20000000000000E+00   6.19999996083679E+00   0.00000000000000E+00   0.00000000000000E+00   1.45020145655322E-04
      2.46612057117330E-04   3.91632202772652E-04   2.62697784231611E-27   0.00000000000000E+00   3.91632202772649E-08
      0.00000000000000E+00   0.00000000000000E+00  -7.81750532022962E-11  -3.91632124597596E-04  -3.91632202772649E-04
      1.40319674035157E-30
      3.20000000000000E-01
      6.40000000000000E+00   6.39999995696865E+00   0.00000000000000E+00   0.00000000000000E+00   1.66531802236432E-04
      2.63781525643542E-04   4.30313327879974E-04   6.33030435667086E-27   0.00000000000000E+00   4.30313327879973E-08
      0.00000000000000E+00   0.00000000000000E+00  -8.65011257492356E-11  -4.30313241378848E-04  -4.30313327879973E-04
     -4.22168674467842E-30
      3.30000000000000E-01
      6.60000000000000E+00   6.59999995301967E+00   0.00000000000000E+00   0.00000000000000E+00   1.89581469726266E-04
      2.80222054232670E-04   4.69803523958936E-04  -5.06012099008572E-27   0.00000000000000E+00   4.69803523958937E-08
      0.00000000000000E+00   0.00000000000000E+00  -9.48359266423222E-11  -4.69803429123011E-04  -4.69803523958937E-04
     -3.64105361073984E-30
      3.40000000000000E-01
      6.80000000000000E+00   6.79999994898841E+00   0.00000000000000E+00   0.00000000000000E+00   2.14188314028883E-04
      2.95927655245310E-04   5.10115969274193E-04   1.50582364677521E-27   0.00000000000000E+00   5.10115969274193E-08
      0.00000000000000E+00   0.00000000000000E+00  -1.03152503834357E-10  -5.10115866121690E-04  -5.10115969274194E-04
     -5.08053992196256E-31
      3.50000000000000E-01
      7.00000000000000E+00   6.99999994487243E+00   0.00000000000000E+00   0.00000000000000E+00   2.40372693122368E-04
      3.10902515620345E-04   5.51275208742713E-04   7.27927663495173E-27   0.00000000000000E+00   5.51275208742713E-08
      0.00000000000000E+00   0.00000000000000E+00  -1.11434936662377E-10  -5.51275097307776E-04  -5.51275208742713E-04
     -6.15713052447368E-30
      3.60000000000000E-01
      7.20000000000000E+00   7.19999994066858E+00   0.00000000000000E+00   0.00000000000000E+00   2.68155981483100E-04
      3.25158443236237E-04   5.93314424719338E-04  -1.57835440242304E-28   0.00000000000000E+00   5.93314424719335E-08
      0.00000000000000E+00   0.00000000000000E+00  -1.19609037926822E-10  -5.93314305110297E-04  -5.93314424719335E-04
     -3.65315013436356E-30
      3.70000000000000E-01
      7.40000000000000E+00   7.39999993637264E+00   0.00000000000000E+00   0.00000000000000E+00   2.97560582548269E-04
      3.38712726760521E-04   6.36273309308790E-04   9.97334179728499E-28   0.00000000000000E+00   6.36273309308793E-08
      0.00000000000000E+00   0.00000000000000E+00  -1.27465704807523E-10  -6.36273181843087E-04  -6.36273309308792E-04
     -9.43528842650191E-31
      3.80000000000000E-01
      7.60000000000000E+00   7.59999993198035E+00   0.00000000000000E+00   0.00000000000000E+00   3.28609939323739E-04
      3.51586455151140E-04   6.80196394474879E-04  -4.97171959544358E-27   0.00000000000000E+00   6.80196394474881E-08
      0.00000000000000E+00   0.00000000000000E+00  -1.35261057094542E-10  -6.80196259213825E-04  -6.80196394474882E-04
      2.89106914606917E-30
      3.90000000000000E-01
      7.80000000000000E+00   7.79999992748686E+00   0.00000000000000E+00   0.00000000000000E+00   3.61328451730817E-04
      3.63803247042011E-04   7.25131698772828E-04   8.57904809832048E-27   0.00000000000000E+00   7.25131698772829E-08
      0.00000000000000E+00   0.00000000000000E+00  -1.43005104571581E-10  -7.25131555767724E-04  -7.25131698772829E-04
     -3.74992232335332E-31
      4.00000000000000E-01
      8.00000000000000E+00   7.99999992288703E+00   0.00000000000000E+00   0.00000000000000E+00   3.95741275130752E-04
      3.75388308999674E-04   7.71129584130426E-04   5.05201631925783E-27   0.00000000000000E+00   7.71129584130428E-08
      0.00000000000000E+00   0.00000000000000E+00  -1.50707791185814E-10  -7.71129433422637E-04  -7.71129584130428E-04
     -3.06042047680126E-30
      4.10000000000000E-01
      8.20000000000000E+00   8.19999991817588E+00   0.00000000000000E+00   0.00000000000000E+00   4.31874008737283E-04
      3.86367744625288E-04   8.18241753362571E-04  -2.62421983492990E-27   0.00000000000000E+00   8.18241753362571E-08
      0.00000000000000E+00   0.00000000000000E+00  -1.58379236079445E-10  -8.18241594983334E-04  -8.18241753362570E-04
     -1.94754030341898E-30
      4.20000000000000E-01
      8.40000000000000E+00   8.39999991334799E+00   0.00000000000000E+00   0.00000000000000E+00   4.69752302047821E-04
      3.96768049146874E-04   8.66520351194695E-04  -1.15853729214765E-26   0.00000000000000E+00   8.66520351194695E-08
      0.00000000000000E+00   0.00000000000000E+00  -1.66029088061494E-10  -8.66520185165606E-04  -8.66520351194694E-04
     -1.87496116167666E-30
      4.30000000000000E-01
      8.60000000000000E+00   8.59999990839830E+00   0.00000000000000E+00   0.00000000000000E+00   5.09401414855118E-04
      4.06615738721975E-04   9.16017153577093E-04  -9.33237120351129E-27   0.00000000000000E+00   9.16017153577091E-08
      0.00000000000000E+00   0.00000000000000E+00  -1.73660052671060E-10  -9.16016979917038E-04  -9.16017153577091E-04
      5.06844339833884E-30
      4.40000000000000E-01
      8.80000000000000E+00   8.79999990332172E+00   0.00000000000000E+00   0.00000000000000E+00   5.50845764254802E-04
      4.15937078384364E-04   9.66782842639166E-04   5.17131223523496E-27   0.00000000000000E+00   9.66782842639167E-08
      0.00000000000000E+00   0.00000000000000E+00  -1.81151631043353E-10  -9.66782661487535E-04  -9.66782842639166E-04
     -1.06449407888739E-30
      4.50000000000000E-01
      9.00000000000001E+00   8.99999989811338E+00   0.00000000000000E+00   0.00000000000000E+00   5.94108489872784E-04
      4.24757880652583E-04   1.01886637052537E-03  -4.81514219365814E-27   0.00000000000000E+00   1.01886637052537E-07
      0.00000000000000E+00   0.00000000000000E+00  -1.87143434360249E-10  -1.01886618338193E-03  -1.01886637052537E-03
     -2.89106914606917E-30
      4.60000000000000E-01
      9.20000000000000E+00   9.19999989276858E+00   0.00000000000000E+00   0.00000000000000E+00   6.39211060732624E-04
      4.33103355713001E-04   1.07231441644563E-03  -4.93085753864265E-27   0.00000000000000E+00   1.07231441644563E-07
      0.00000000000000E+00   0.00000000000000E+00  -1.83811119913956E-10  -1.07231423263450E-03  -1.07231441644562E-03
     -3.39912313826543E-30
      4.70000000000000E-01
      9.40000000000001E+00   9.39999988728288E+00   0.00000000000000E+00   0.00000000000000E+00   6.86172941039322E-04
      4.40997999662312E-04   1.12717094070163E-03   4.87487482731207E-27   0.00000000000000E+00   1.12717094070163E-07
      0.00000000000000E+00   0.00000000000000E+00  -1.38242906614602E-10  -1.12717080245873E-03  -1.12717094070163E-03
     -4.54829288251887E-30
      4.80000000000000E-01
      9.60000000000000E+00   9.59999988165236E+00   0.00000000000000E+00   0.00000000000000E+00   7.35011326533837E-04
      4.48465511267869E-04   1.18347683780171E-03   7.37137956582273E-28   0.00000000000000E+00   1.18347683780170E-07
      0.00000000000000E+00   0.00000000000000E+00   5.46643358247898E-11  -1.18347689246604E-03  -1.18347683780171E-03
     -3.53218489812635E-30
      4.90000000000000E-01
      9.80000000000001E+00   9.79999987587305E+00   0.00000000000000E+00   0.00000000000000E+00   7.85740957874263E-04
      4.55528730681212E-04   1.24126968855547E-03  -1.05520394874438E-27   0.00000000000000E+00   1.24126968855547E-07
      0.00000000000000E+00   0.00000000000000E+00   6.65634909944983E-10  -1.24127035419038E-03  -1.24126968855547E-03
      2.66123519721849E-31
      5.00000000000000E-01
      1.00000000000000E+01   9.99999986994157E+00   0.00000000000000E+00   0.00000000000000E+00   8.38374013058792E-04
      4.62209595696161E-04   1.30058360875495E-03   1.08603556815652E-26   0.00000000000000E+00   1.30058360875496E-07
      0.00000000000000E+00   0.00000000000000E+00   2.28602790900186E-09  -1.30058589478286E-03  -1.30058360875495E-03
      1.99592639791386E-30
      5.10000000000000E-01
      1.02000000000000E+01   1.01999998638551E+01   0.00000000000000E+00   0.00000000000000E+00   8.92920077201936E-04
      4.68529112652121E-04   1.36144918985406E-03  -2.19259167898831E-27   0.00000000000000E+00   1.36144918985405E-07
      0.00000000000000E+00   0.00000000000000E+00   6.05051084602796E-09  -1.36145524036490E-03  -1.36144918985406E-03
      1.27013498049064E-30
      5.20000000000000E-01
      1.04000000000000E+01   1.03999998576106E+01   0.00000000000000E+00   0.00000000000000E+00   9.49386184786326E-04
      4.74507340209133E-04   1.42389352499546E-03  -1.90418636275157E-27   0.00000000000000E+00   1.42389352499545E-07
      0.00000000000000E+00   0.00000000000000E+00   1.39221409290722E-08  -1.42390744713638E-03  -1.42389352499545E-03
      1.51206545296505E-30
      5.30000000000000E-01
      1.06000000000000E+01   1.05999998512060E+01   0.00000000000000E+00   0.00000000000000E+00   1.00777697531123E-03
      4.80163401909255E-04   1.48794037722049E-03  -1.03247458085541E-26   0.00000000000000E+00   1.48794037722049E-07
      0.00000000000000E+00   0.00000000000000E+00   2.90242365764268E-08  -1.48796940145707E-03  -1.48794037722049E-03
      1.77818897268690E-30
      5.40000000000000E-01
      1.08000000000000E+01   1.07999998446390E+01   0.00000000000000E+00   0.00000000000000E+00   1.06809467421989E-03
      4.85515428412396E-04   1.55361010263228E-03  -1.43193808048153E-27   0.00000000000000E+00   1.55361010263229E-07
      0.00000000000000E+00   0.00000000000000E+00   5.59972653650514E-08  -1.55366609989765E-03  -1.55361010263228E-03
      6.16922704809740E-31
      5.50000000000000E-01
      1.10000000000000E+01   1.09999998379079E+01   0.00000000000000E+00   0.00000000000000E+00   1.13033955771088E-03
      4.90580663588680E-04   1.62092022129956E-03  -8.86810662683290E-27   0.00000000000000E+00   1.62092022129956E-07
      0.00000000000000E+00   0.00000000000000E+00   1.01355524783825E-07  -1.62102157682435E-03  -1.62092022129956E-03
      1.66932026007341E-30
      5.60000000000000E-01
      1.12000000000000E+01   1.11999998310115E+01   0.00000000000000E+00   0.00000000000000E+00   1.19451003409172E-03
      4.95375428599849E-04   1.68988546269157E-03   7.42545102642076E-27   0.00000000000000E+00   1.68988546269157E-07
      0.00000000000000E+00   0.00000000000000E+00   1.73820408187997E-07  -1.69005928309975E-03  -1.68988546269157E-03
      2.61284910272360E-30
      5.70000000000000E-01
      1.14000000000000E+01   1.13999998239482E+01   0.00000000000000E+00   0.00000000000000E+00   1.26060294881105E-03
      4.99915160472597E-04   1.76051810928364E-03  -1.01968855538513E-27   0.00000000000000E+00   1.76051810928364E-07
      0.00000000000000E+00   0.00000000000000E+00   2.84610744813040E-07  -1.76080272002846E-03  -1.76051810928364E-03
      1.02820450801623E-30
      5.80000000000000E-01
      1.16000000000000E+01   1.15999998167172E+01   0.00000000000000E+00   0.00000000000000E+00   1.32861386390247E-03
      5.04214438173780E-04   1.83282830207625E-03  -5.12500674280336E-27   0.00000000000000E+00   1.83282830207624E-07
      0.00000000000000E+00   0.00000000000000E+00   4.47677223801806E-07  -1.83327597930004E-03  -1.83282830207624E-03
      2.18947077589339E-30
      5.90000000000000E-01
      1.18000000000000E+01   1.17999998093176E+01   0.00000000000000E+00   0.00000000000000E+00   1.39853733625601E-03
      5.08287009097071E-04   1.90682434535308E-03  -1.16172593577486E-27   0.00000000000000E+00   1.90682434535308E-07
      0.00000000000000E+00   0.00000000000000E+00   6.79872930525085E-07  -1.90750421828361E-03  -1.90682434535308E-03
     -3.62895708711612E-32
      6.00000000000000E-01
      1.20000000000000E+01   1.19999998017487E+01   0.00000000000000E+00   0.00000000000000E+00   1.47036718237331E-03
      5.12145816212961E-04   1.98251299858627E-03   6.28591011497181E-27   0.00000000000000E+00   1.98251299858626E-07
      0.00000000000000E+00   0.00000000000000E+00   1.00105842882484E-06  -1.98351405701509E-03  -1.98251299858626E-03
     -2.52817343735756E-30
      6.10000000000000E-01
      1.22000000000000E+01   1.21999997940100E+01   0.00000000000000E+00   0.00000000000000E+00   1.54409671580452E-03
      5.15803026719211E-04   2.05989974252373E-03  -5.17097353257350E-27   0.00000000000000E+00   2.05989974252373E-07
      0.00000000000000E+00   0.00000000000000E+00   1.43414392686618E-06  -2.06133388645060E-03  -2.05989974252373E-03
      4.87489902035932E-30
      6.20000000000000E-01
      1.24000000000000E+01   1.23999997861012E+01   0.00000000000000E+00   0.00000000000000E+00   1.61971894544351E-03
      5.19270062836873E-04   2.13898900828039E-03  -9.74353204148155E-27   0.00000000000000E+00   2.13898900828037E-07
      0.00000000000000E+00   0.00000000000000E+00   2.00507535200270E-06  -2.14099408363238E-03  -2.13898900828038E-03
     -1.54835502383621E-30
      6.30000000000000E-01
      1.26000000000000E+01   1.25999997780215E+01   0.00000000000000E+00   0.00000000000000E+00   1.69722672418370E-03
      5.22557635047597E-04   2.21978435923130E-03  -3.05563025344627E-27   0.00000000000000E+00   2.21978435923128E-07
      0.00000000000000E+00   0.00000000000000E+00   2.74277203045433E-06  -2.22252713126173E-03  -2.21978435923127E-03
      1.69351330732085E-31
      6.40000000000000E-01
      1.28000000000000E+01   1.27999997697711E+01   0.00000000000000E+00   0.00000000000000E+00   1.77661284038507E-03
      5.25675777664065E-04   2.30228861804914E-03   4.15636551711033E-28   0.00000000000000E+00   2.30228861804913E-07
      0.00000000000000E+00   0.00000000000000E+00   3.67902522011270E-06  -2.30596764326925E-03  -2.30228861804914E-03
     -6.29019228433460E-31
      6.50000000000000E-01
      1.30000000000000E+01   1.29999997613496E+01   0.00000000000000E+00   0.00000000000000E+00   1.85787004550426E-03
      5.28633886464155E-04   2.38650393196841E-03  -7.97765732984360E-27   0.00000000000000E+00   2.38650393196841E-07
      0.00000000000000E+00   0.00000000000000E+00   4.84836611974284E-06  -2.39135229808815E-03  -2.38650393196841E-03
     -4.89909206760676E-31
      6.60000000000000E-01
      1.32000000000000E+01   1.31999997527568E+01   0.00000000000000E+00   0.00000000000000E+00   1.94099101580863E-03
      5.31440757856761E-04   2.47243177366539E-03   5.77275138980634E-27   0.00000000000000E+00   2.47243177366540E-07
      0.00000000000000E+00   0.00000000000000E+00   6.28791178863795E-06  -2.47871968545404E-03  -2.47243177366540E-03
      6.89501846552062E-31
      6.70000000000000E-01
      1.34000000000000E+01   1.33999997439928E+01   0.00000000000000E+00   0.00000000000000E+00   2.02596824997458E-03
      5.34104628967560E-04   2.56007287894214E-03  -9.97745461531705E-28   0.00000000000000E+00   2.56007287894214E-07
      0.00000000000000E+00   0.00000000000000E+00   8.03719494864389E-06  -2.56811007389078E-03  -2.56007287894214E-03
     -1.87496116167666E-30
      6.80000000000000E-01
      1.36000000000000E+01   1.35999997350572E+01   0.00000000000000E+00   0.00000000000000E+00   2.11279390102111E-03
      5.36633218382688E-04   2.64942711940379E-03  -7.84299882886434E-27   0.00000000000000E+00   2.64942711940379E-07
      0.00000000000000E+00   0.00000000000000E+00   1.01379825864446E-05  -2.65956510199023E-03  -2.64942711940379E-03
      1.48787240571761E-30
      6.90000000000000E-01
      1.38000000000000E+01   1.37999997259507E+01   0.00000000000000E+00   0.00000000000000E+00   2.20145955508706E-03
      5.39033766636267E-04   2.74049332172333E-03   6.34336860218448E-27   0.00000000000000E+00   2.74049332172333E-07
      0.00000000000000E+00   0.00000000000000E+00   1.26340870615723E-05  -2.75312740878490E-03  -2.74049332172333E-03
      3.62895708711612E-32
      7.00000000000000E-01
      1.40000000000000E+01   1.39999997166731E+01   0.00000000000000E+00   0.00000000000000E+00   2.29195596521633E-03
      5.41313076019572E-04   2.83326904123590E-03   1.15665749237652E-26   0.00000000000000E+00   2.83326904123590E-07
      0.00000000000000E+00   0.00000000000000E+00   1.55711714998520E-05  -2.84884021273575E-03  -2.83326904123590E-03
     -5.02005730384396E-31
      7.10000000000000E-01
      1.42000000000000E+01   1.41999997072250E+01   0.00000000000000E+00   0.00000000000000E+00   2.38427275407864E-03
      5.43477549142198E-04   2.92775030322084E-03   4.78158643712594E-27   0.00000000000000E+00   2.92775030322083E-07
      0.00000000000000E+00   0.00000000000000E+00   1.89965504370028E-05  -2.94674685365784E-03  -2.92775030322084E-03
     -7.25791417423224E-32
      7.20000000000000E-01