DF-ISE text

Info {
  version   = 1.0
  type      = xyplot
  datasets  = [
    "time"
    "ntype OuterVoltage" "ntype InnerVoltage" "ntype QuasiFermiPotential" "ntype DisplacementCurrent" "ntype eCurrent"
    "ntype hCurrent" "ntype TotalCurrent" "ntype Charge" "ptype OuterVoltage" "ptype InnerVoltage"
    "ptype QuasiFermiPotential" "ptype DisplacementCurrent" "ptype eCurrent" "ptype hCurrent" "ptype TotalCurrent"
    "ptype Charge" ]
  functions = [
    Time
    OuterVoltage InnerVoltage QuasiFermiPotential DisplacementCurrent eCurrent
    hCurrent TotalCurrent Charge OuterVoltage InnerVoltage
    QuasiFermiPotential DisplacementCurrent eCurrent hCurrent TotalCurrent
    Charge ]
}

Data {
      1.00000000000000E-02
      2.00000000000000E-01   1.99999999999607E-01   0.00000000000000E+00   0.00000000000000E+00   4.33056813118698E-09
     -4.11348406197088E-10   3.91921972498989E-09   1.66114660125923E-28   0.00000000000000E+00   3.91921972526102E-13
      0.00000000000000E+00   0.00000000000000E+00   1.19482123944672E-10  -4.03870184921041E-09  -3.91921972526574E-09
     -9.38690233200702E-30
      2.00000000000000E-02
      4.00000000000000E-01   3.99999999999395E-01   0.00000000000000E+00   0.00000000000000E+00   6.24568852622527E-09
     -1.86396677928292E-10   6.05929184829697E-09  -1.61722204489150E-28   0.00000000000000E+00   6.05929184835116E-13
      0.00000000000000E+00   0.00000000000000E+00   1.19437465939950E-10  -6.17872931428786E-09  -6.05929184834791E-09
      0.00000000000000E+00
      3.00000000000000E-02
      6.00000000000000E-01   5.99999999999169E-01   0.00000000000000E+00   0.00000000000000E+00   8.09953997568074E-09
      2.13441725148718E-10   8.31298170082946E-09   1.75151689412932E-27   0.00000000000000E+00   8.31298170085925E-13
      0.00000000000000E+00   0.00000000000000E+00   1.19405592222218E-10  -8.43238729307531E-09  -8.31298170085309E-09
      1.17094348677613E-29
      4.00000000000000E-02
      8.00000000000000E-01   7.99999999998773E-01   0.00000000000000E+00   0.00000000000000E+00   9.78784076263988E-09
      2.50465187398288E-09   1.22924926366228E-08  -1.38758768868061E-27   0.00000000000000E+00   1.22924926366385E-12
      0.00000000000000E+00   0.00000000000000E+00   1.19381625445534E-10  -1.24118742620780E-08  -1.22924926366324E-08
      6.96759760726295E-30
      5.00000000000000E-02
      1.00000000000000E+00   9.99999999996691E-01   0.00000000000000E+00   0.00000000000000E+00   1.13682191817892E-08
      2.17372400415298E-08   3.31054592233190E-08  -9.82738211911027E-28   0.00000000000000E+00   3.31054592233332E-12
      0.00000000000000E+00   0.00000000000000E+00   1.19363481481534E-10  -3.32248227048183E-08  -3.31054592233368E-08
     -4.25797631554958E-30
      6.00000000000000E-02
      1.20000000000000E+00   1.19999999998184E+00   0.00000000000000E+00   0.00000000000000E+00   1.61771223204795E-08
      1.65484794967021E-07   1.81661917287501E-07   1.24184725999657E-27   0.00000000000000E+00   1.81661917287497E-11
      0.00000000000000E+00   0.00000000000000E+00   1.19353290731119E-10  -1.81781270578225E-07  -1.81661917287494E-07
     -4.16120412655981E-30
      7.00000000000000E-02
      1.40000000000000E+00   1.39999999989486E+00   0.00000000000000E+00   0.00000000000000E+00   4.93624851102384E-08
      1.00194559963652E-06   1.05130808474676E-06   5.78092863977598E-29   0.00000000000000E+00   1.05130808474676E-10
      0.00000000000000E+00   0.00000000000000E+00   1.19368235729029E-10  -1.05142745298249E-06  -1.05130808474677E-06
      1.19997514347306E-29
      8.00000000000000E-02
      1.60000000000000E+00   1.59999999950858E+00   0.00000000000000E+00   0.00000000000000E+00   2.73906468945559E-07
      4.64042664854794E-06   4.91433311749350E-06  -7.64742223491603E-28   0.00000000000000E+00   4.91433311749347E-10
      0.00000000000000E+00   0.00000000000000E+00   1.19473056229031E-10  -4.91445259054971E-06  -4.91433311749348E-06
      9.67721889897631E-30
      9.00000000000000E-02
      1.80000000000000E+00   1.79999999824109E+00   0.00000000000000E+00   0.00000000000000E+00   1.34456431783626E-06
      1.62445259692421E-05   1.75890902870784E-05  -1.21037815378946E-27   0.00000000000000E+00   1.75890902870784E-09
      0.00000000000000E+00   0.00000000000000E+00   1.19812576662798E-10  -1.75892100996551E-05  -1.75890902870784E-05
     -9.48367452099679E-30
      1.00000000000000E-01
      2.00000000000000E+00   1.99999999520189E+00   0.00000000000000E+00   0.00000000000000E+00   4.89179751619547E-06
      4.30894379894650E-05   4.79812355056605E-05  -3.82482399763140E-27   0.00000000000000E+00   4.79812355056606E-09
      0.00000000000000E+00   0.00000000000000E+00   1.20494234557399E-10  -4.79813559998951E-05  -4.79812355056605E-05
     -2.46769081923896E-29
      1.10000000000000E-01
      2.20000000000000E+00   2.19999998973501E+00   0.00000000000000E+00   0.00000000000000E+00   1.34293427121632E-05
      8.92206742824827E-05   1.02650016994646E-04   4.53601491104079E-27   0.00000000000000E+00   1.02650016994646E-08
      0.00000000000000E+00   0.00000000000000E+00   1.21306425644019E-10  -1.02650138301072E-04  -1.02650016994646E-04
      1.34513342695771E-29
      1.20000000000000E-01
      2.40000000000000E+00   2.39999998185753E+00   0.00000000000000E+00   0.00000000000000E+00   2.95057767201480E-05
      1.51919003618077E-04   1.81424780338225E-04   4.99659004801395E-28   0.00000000000000E+00   1.81424780338226E-08
      0.00000000000000E+00   0.00000000000000E+00   1.21762810393921E-10  -1.81424902101036E-04  -1.81424780338225E-04
      1.69351330732085E-29
      1.30000000000000E-01
      2.60000000000000E+00   2.59999997205812E+00   0.00000000000000E+00   0.00000000000000E+00   5.51273046254986E-05
      2.24291497625300E-04   2.79418802250799E-04  -2.53134272654698E-27   0.00000000000000E+00   2.79418802250799E-08
      0.00000000000000E+00   0.00000000000000E+00   1.21501777103527E-10  -2.79418923752576E-04  -2.79418802250799E-04
     -1.41287395925054E-29
      1.40000000000000E-01
      2.80000000000000E+00   2.79999996088679E+00   0.00000000000000E+00   0.00000000000000E+00   9.18192927380593E-05
      2.99312791115783E-04   3.91132083853843E-04  -8.23531328302884E-28   0.00000000000000E+00   3.91132083853843E-08
      0.00000000000000E+00   0.00000000000000E+00   1.20508997433340E-10  -3.91132204362840E-04  -3.91132083853842E-04
     -8.90304138705821E-30
      1.50000000000000E-01
      3.00000000000000E+00   2.99999994876349E+00   0.00000000000000E+00   0.00000000000000E+00   1.40837356155680E-04
      3.71527812018206E-04   5.12365168173886E-04  -2.55086651567566E-27   0.00000000000000E+00   5.12365168173889E-08
      0.00000000000000E+00   0.00000000000000E+00   1.18966321019277E-10  -5.12365287140209E-04  -5.12365168173888E-04
      3.67734318161100E-30
      1.60000000000000E-01
      3.20000000000000E+00   3.19999993585911E+00   0.00000000000000E+00   0.00000000000000E+00   2.03561544854691E-04
      4.37847604383510E-04   6.41409149238201E-04   1.78496302591618E-28   0.00000000000000E+00   6.41409149238203E-08
      0.00000000000000E+00   0.00000000000000E+00   1.17001546984822E-10  -6.41409266239749E-04  -6.41409149238202E-04
      8.51595263109916E-30
      1.70000000000000E-01
      3.40000000000000E+00   3.39999992210472E+00   0.00000000000000E+00   0.00000000000000E+00   2.81714007064100E-04
      4.97238831122722E-04   7.78952838186822E-04  -3.98718353770897E-27   0.00000000000000E+00   7.78952838186820E-08
      0.00000000000000E+00   0.00000000000000E+00   1.14648109559456E-10  -7.78952952834929E-04  -7.78952838186820E-04
     -1.23868401906897E-29
      1.80000000000000E-01
      3.60000000000000E+00   3.59999990728696E+00   0.00000000000000E+00   0.00000000000000E+00   3.77339686549279E-04
      5.49790860722158E-04   9.27130547271436E-04  -4.04142434963774E-27   0.00000000000000E+00   9.27130547271433E-08
      0.00000000000000E+00   0.00000000000000E+00   1.11892561220508E-10  -9.27130659163995E-04  -9.27130547271434E-04
      7.93531949716058E-30
      1.90000000000000E-01
      3.80000000000000E+00   3.79999989111399E+00   0.00000000000000E+00   0.00000000000000E+00   4.92718634697169E-04
      5.96141444152653E-04   1.08886007884982E-03   1.45884074902068E-28   0.00000000000000E+00   1.08886007884982E-07
      0.00000000000000E+00   0.00000000000000E+00   1.08697637193494E-10  -1.08886018754745E-03  -1.08886007884982E-03
      1.35481064585668E-29
      2.00000000000000E-01
      4.00000000000000E+00   3.99999987325947E+00   0.00000000000000E+00   0.00000000000000E+00   6.30287310936474E-04
      6.37118094109309E-04   1.26740540504578E-03  -1.24066784894326E-27   0.00000000000000E+00   1.26740540504577E-07
      0.00000000000000E+00   0.00000000000000E+00   1.05012458220087E-10  -1.26740551005823E-03  -1.26740540504577E-03
     -5.41924258342674E-30
      2.10000000000000E-01
      4.20000000000000E+00   4.19999985339062E+00   0.00000000000000E+00   0.00000000000000E+00   7.92560464811310E-04
      6.73533131717121E-04   1.46609359652843E-03   7.90962648098380E-27   0.00000000000000E+00   1.46609359652841E-07
      0.00000000000000E+00   0.00000000000000E+00   1.00779434869122E-10  -1.46609369730785E-03  -1.46609359652841E-03
     -1.97415265539117E-29
      2.20000000000000E-01
      4.40000000000000E+00   4.39999983118658E+00   0.00000000000000E+00   0.00000000000000E+00   9.82040253125573E-04
      7.06093799297256E-04   1.68813405242283E-03  -1.79807565752429E-27   0.00000000000000E+00   1.68813405242284E-07
      0.00000000000000E+00   0.00000000000000E+00   9.59389663314126E-11  -1.68813414836181E-03  -1.68813405242284E-03
     -5.03215382746768E-30
      2.30000000000000E-01
      4.60000000000000E+00   4.59999980635113E+00   0.00000000000000E+00   0.00000000000000E+00   1.20110951727540E-03
      7.35379352897778E-04   1.93648887017318E-03   1.49764639680557E-27   0.00000000000000E+00   1.93648887017317E-07
      0.00000000000000E+00   0.00000000000000E+00   9.04327334369632E-11  -1.93648896060591E-03  -1.93648887017317E-03
      2.70962129171337E-30
      2.40000000000000E-01
      4.80000000000000E+00   4.79999977862157E+00   0.00000000000000E+00   0.00000000000000E+00   1.45193421917307E-03
      7.61850316401265E-04   2.21378453557433E-03   8.97920109979315E-27   0.00000000000000E+00   2.21378453557434E-07
      0.00000000000000E+00   0.00000000000000E+00   8.42064334259224E-11  -2.21378461978077E-03  -2.21378453557434E-03
     -1.52900058603826E-29
      2.50000000000000E-01
      5.00000000000000E+00   4.99999974777167E+00   0.00000000000000E+00   0.00000000000000E+00   1.73641398821864E-03
      7.85869077517275E-04   2.52228306573591E-03   2.23488112557684E-27   0.00000000000000E+00   2.52228306573591E-07
      0.00000000000000E+00   0.00000000000000E+00   7.72123885226949E-11  -2.52228314294830E-03  -2.52228306573591E-03
     -2.40962750584510E-29
      2.60000000000000E-01
      5.20000000000000E+00   5.19999971361021E+00   0.00000000000000E+00   0.00000000000000E+00   2.05617570070049E-03
      8.07722031259260E-04   2.86389773195975E-03  -3.18852266197646E-27   0.00000000000000E+00   2.86389773195975E-07
      0.00000000000000E+00   0.00000000000000E+00   6.94125980765584E-11  -2.86389780137234E-03  -2.86389773195974E-03
      1.06449407888739E-30
      2.70000000000000E-01
      5.40000000000000E+00   5.39999967597781E+00   0.00000000000000E+00   0.00000000000000E+00   2.41258246544102E-03
      8.27639311326753E-04   3.24022177676777E-03  -3.10945978357182E-27   0.00000000000000E+00   3.24022177676776E-07
      0.00000000000000E+00   0.00000000000000E+00   6.07824693897197E-11  -3.24022183755023E-03  -3.24022177676776E-03
      7.74177511918105E-31
      2.80000000000000E-01
      5.60000000000000E+00   5.59999963474469E+00   0.00000000000000E+00   0.00000000000000E+00   2.80674230237220E-03
      8.45810603136605E-04   3.65255290550880E-03   4.14385771168340E-27   0.00000000000000E+00   3.65255290550877E-07
      0.00000000000000E+00   0.00000000000000E+00   5.13146414351074E-11  -3.65255295682342E-03  -3.65255290550878E-03
     -2.58381744602668E-29
      2.90000000000000E-01
      5.80000000000000E+00   5.79999958980920E+00   0.00000000000000E+00   0.00000000000000E+00   3.23951076575855E-03
      8.62396907461536E-04   4.10190767322009E-03  -1.24182911521114E-27   0.00000000000000E+00   4.10190767322006E-07
      0.00000000000000E+00   0.00000000000000E+00   4.10224182598951E-11  -4.10190771424249E-03  -4.10190767322007E-03
      2.03221596878503E-30
      3.00000000000000E-01
      6.00000000000000E+00   5.99999954109757E+00   0.00000000000000E+00   0.00000000000000E+00   3.71148565715012E-03
      8.77538858991492E-04   4.58902451614161E-03   4.95647797567769E-27   0.00000000000000E+00   4.58902451614159E-07
      0.00000000000000E+00   0.00000000000000E+00   2.99420570358781E-11  -4.58902454608365E-03  -4.58902451614159E-03
      9.87076327695584E-30
      3.10000000000000E-01
      6.20000000000000E+00   6.19999948856426E+00   0.00000000000000E+00   0.00000000000000E+00   4.22299528954658E-03
      8.91362402575016E-04   5.11435769212160E-03   4.37434487280977E-28   0.00000000000000E+00   5.11435769212160E-07
      0.00000000000000E+00   0.00000000000000E+00   1.81316188452059E-11  -5.11435771025323E-03  -5.11435769212162E-03
      4.16120412655981E-30
      3.20000000000000E-01
      6.40000000000000E+00   6.39999943219332E+00   0.00000000000000E+00   0.00000000000000E+00   4.77408464199456E-03
      9.03982543590197E-04   5.67806718558476E-03  -2.75244298534134E-28   0.00000000000000E+00   5.67806718558476E-07
      0.00000000000000E+00   0.00000000000000E+00   5.66253207211827E-12  -5.67806719124730E-03  -5.67806718558476E-03
      2.15801981447172E-29
      3.30000000000000E-01
      6.60000000000000E+00   6.59999937199884E+00   0.00000000000000E+00   0.00000000000000E+00   5.36450545565662E-03
      9.15505719129919E-04   6.28001117478654E-03  -3.26792424304256E-27   0.00000000000000E+00   6.28001117478655E-07
      0.00000000000000E+00   0.00000000000000E+00  -7.39779592924127E-12  -6.28001116738877E-03  -6.28001117478656E-03
     -1.16126626787716E-30
      3.40000000000000E-01
      6.80000000000000E+00   6.79999930802531E+00   0.00000000000000E+00   0.00000000000000E+00   5.99371621073359E-03
      9.26031189631146E-04   6.91974740036474E-03   3.37323657771067E-28   0.00000000000000E+00   6.91974740036473E-07
      0.00000000000000E+00   0.00000000000000E+00  -2.10066467133756E-11  -6.91974737935807E-03  -6.91974740036472E-03
      7.06436979625271E-30
      3.50000000000000E-01
      7.00000000000000E+00   6.99999924034523E+00   0.00000000000000E+00   0.00000000000000E+00   6.66089619973689E-03
      9.35651744065479E-04   7.59654794380237E-03   2.19406745487040E-28   0.00000000000000E+00   7.59654794380234E-07
      0.00000000000000E+00   0.00000000000000E+00  -3.51007869134850E-11  -7.59654790870155E-03  -7.59654794380234E-03
      1.88705768530038E-29
      3.60000000000000E-01
      7.20000000000000E+00   7.19999916905714E+00   0.00000000000000E+00   0.00000000000000E+00   7.36497447741722E-03
      9.44453964359273E-04   8.30942844177649E-03  -2.25776774827292E-27   0.00000000000000E+00   8.30942844177651E-07
      0.00000000000000E+00   0.00000000000000E+00  -4.88872782646631E-11  -8.30942839288922E-03  -8.30942844177650E-03
     -1.87738046640140E-29
      3.70000000000000E-01
      7.40000000000000E+00   7.39999909428096E+00   0.00000000000000E+00   0.00000000000000E+00   8.10467241085177E-03
      9.52518228582491E-04   9.05719063943426E-03  -9.58020477951408E-28   0.00000000000000E+00   9.05719063943424E-07
      0.00000000000000E+00   0.00000000000000E+00   1.09901424726196E-09  -9.05719173844848E-03  -9.05719063943423E-03
      2.88381123189494E-29
      3.80000000000000E-01
      7.60000000000000E+00   7.59999901615254E+00   0.00000000000000E+00   0.00000000000000E+00   8.87855562450216E-03
      9.59918605847427E-04   9.83847423034958E-03  -9.17671313752126E-27   0.00000000000000E+00   9.83847423034958E-07
      0.00000000000000E+00   0.00000000000000E+00   1.86745448495954E-07  -9.83866097579806E-03  -9.83847423034957E-03
      7.93531949716058E-30
      3.90000000000000E-01
      7.80000000000000E+00   7.79999893481888E+00   0.00000000000000E+00   0.00000000000000E+00   9.68508823382971E-03
      9.66722742896350E-04   1.06518109767261E-02   8.72386767914366E-27   0.00000000000000E+00   1.06518109767260E-06
      0.00000000000000E+00   0.00000000000000E+00   2.54309516709668E-06  -1.06543540718931E-02  -1.06518109767260E-02
      7.06436979625271E-30
      4.00000000000000E-01
      8.00000000000000E+00   7.99999885043216E+00   0.00000000000000E+00   0.00000000000000E+00   1.05226862665772E-02
      9.72991855422493E-04   1.14956781219997E-02  -5.09403964232664E-27   0.00000000000000E+00   1.14956781219996E-06
      0.00000000000000E+00   0.00000000000000E+00   1.27107127637740E-05  -1.15083888347634E-02  -1.14956781219996E-02
      4.16120412655981E-30
      4.10000000000000E-01
      8.20000000000000E+00   8.19999876314469E+00   0.00000000000000E+00   0.00000000000000E+00   1.13897722010760E-02
      9.78780875600144E-04   1.23685530766761E-02  -2.47226330516873E-27   0.00000000000000E+00   1.23685530766761E-06
      0.00000000000000E+00   0.00000000000000E+00   3.83813218747933E-05  -1.24069343985509E-02  -1.23685530766761E-02
      1.12255739228125E-29
      4.20000000000000E-01
      8.40000000000000E+00   8.39999867310386E+00   0.00000000000000E+00   0.00000000000000E+00   1.22848223604926E-02
      9.84138698724225E-04   1.32689610592168E-02   5.23343998056639E-27   0.00000000000000E+00   1.32689610592168E-06
      0.00000000000000E+00   0.00000000000000E+00   8.68502081087229E-05  -1.33558112673255E-02  -1.32689610592168E-02
     -6.87082541827318E-30
      4.30000000000000E-01
      8.60000000000000E+00   8.59999858044896E+00   0.00000000000000E+00   0.00000000000000E+00   1.32064014681598E-02
      9.89108514706590E-04   1.41955099828664E-02   9.98229322476654E-28   0.00000000000000E+00   1.41955099828663E-06
      0.00000000000000E+00   0.00000000000000E+00   1.64071355725889E-04  -1.43595813385922E-02  -1.41955099828663E-02
     -3.54186211702533E-29
      4.40000000000000E-01
      8.80000000000000E+00   8.79999848530855E+00   0.00000000000000E+00   0.00000000000000E+00   1.41531866879641E-02
      9.93728214799164E-04   1.51469149027633E-02   2.64231623427099E-27   0.00000000000000E+00   1.51469149027633E-06
      0.00000000000000E+00   0.00000000000000E+00   2.74748677861630E-04  -1.54216635806249E-02  -1.51469149027633E-02
      1.37416508365464E-29
      4.50000000000000E-01
      9.00000000000001E+00   8.99999838779996E+00   0.00000000000000E+00   0.00000000000000E+00   1.51239719889531E-02
      9.98028781654828E-04   1.61220007706079E-02  -4.99499330689561E-27   0.00000000000000E+00   1.61220007706079E-06
      0.00000000000000E+00   0.00000000000000E+00   4.22714150774473E-04  -1.65447149213825E-02  -1.61220007706080E-02
      1.94512099869424E-29
      4.60000000000000E-01
      9.20000000000000E+00   9.19999828802545E+00   0.00000000000000E+00   0.00000000000000E+00   1.61177019873256E-02
      1.00204319771933E-03   1.71197451850449E-02   1.70173894338498E-27   0.00000000000000E+00   1.71197451850450E-06
      0.00000000000000E+00   0.00000000000000E+00   6.11266804430625E-04  -1.77310119894756E-02  -1.71197451850450E-02
     -6.77405322928342E-30
      4.70000000000000E-01
      9.40000000000001E+00   9.39999818607916E+00   0.00000000000000E+00   0.00000000000000E+00   1.71334131139588E-02
      1.00579467067692E-03   1.81392077846358E-02   5.86393498488194E-27   0.00000000000000E+00   1.81392077846357E-06
      0.00000000000000E+00   0.00000000000000E+00   8.43416573244674E-04  -1.89826243578804E-02  -1.81392077846357E-02
     -1.54835502383621E-30
      4.80000000000000E-01
      9.60000000000000E+00   9.59999808204502E+00   0.00000000000000E+00   0.00000000000000E+00   1.81702441680831E-02
      1.00930546195089E-03   1.91795496300340E-02   2.01803884309803E-27   0.00000000000000E+00   1.91795496300340E-06
      0.00000000000000E+00   0.00000000000000E+00   1.12203751009034E-03  -2.03015871401243E-02  -1.91795496300340E-02
      2.99993785868266E-30
      4.90000000000000E-01
      9.80000000000001E+00   9.79999797600064E+00   0.00000000000000E+00   0.00000000000000E+00   1.92273985935327E-02
      1.01259551752483E-03   2.02399941110575E-02  -3.98469165384249E-27   0.00000000000000E+00   2.02399941110575E-06
      0.00000000000000E+00   0.00000000000000E+00   1.44999960003249E-03  -2.16899937110901E-02  -2.02399941110576E-02
     -9.67721889897631E-31
      5.00000000000000E-01
      1.00000000000000E+01   9.99999786801957E+00   0.00000000000000E+00   0.00000000000000E+00   2.03041184948637E-02
      1.01568542003451E-03   2.13198039148982E-02  -3.65830325342726E-27   0.00000000000000E+00   2.13198039148980E-06
      0.00000000000000E+00   0.00000000000000E+00   1.83032767511280E-03  -2.31501315900109E-02  -2.13198039148981E-02
     -1.35481064585668E-30
      5.10000000000000E-01
      1.02000000000000E+01   1.01999977581794E+01   0.00000000000000E+00   0.00000000000000E+00   2.13996189658987E-02
      1.01858746899982E-03   2.24182064348986E-02  -1.22247467741318E-28   0.00000000000000E+00   2.24182064348986E-06
      0.00000000000000E+00   0.00000000000000E+00   2.26640291908099E-03  -2.46846093539796E-02  -2.24182064348986E-02
      1.06449407888739E-30
      5.20000000000000E-01
      1.04000000000000E+01   1.03999976465567E+01   0.00000000000000E+00   0.00000000000000E+00   2.25131125494000E-02
      1.02132010614461E-03   2.35344326555446E-02  -4.58975976550098E-27   0.00000000000000E+00   2.35344326555445E-06
      0.00000000000000E+00   0.00000000000000E+00   2.76197140268651E-03  -2.62964040582311E-02  -2.35344326555445E-02
      1.25803845686692E-30
      5.30000000000000E-01
      1.06000000000000E+01   1.05999975332339E+01   0.00000000000000E+00   0.00000000000000E+00   2.36437619112421E-02
      1.02389871933100E-03   2.46676606305731E-02   2.13646380937425E-27   0.00000000000000E+00   2.46676606305731E-06
      0.00000000000000E+00   0.00000000000000E+00   3.32113505718314E-03  -2.79887956877563E-02  -2.46676606305731E-02
      1.40319674035157E-29
      5.40000000000000E-01
      1.08000000000000E+01   1.07999974182974E+01   0.00000000000000E+00   0.00000000000000E+00   2.47906874115226E-02
      1.02633803058236E-03   2.58170254421050E-02   4.04415816397670E-27   0.00000000000000E+00   2.58170254421049E-06
      0.00000000000000E+00   0.00000000000000E+00   3.94825903682010E-03  -2.97652844789250E-02  -2.58170254421049E-02
     -8.70949700907868E-30
      5.50000000000000E-01
      1.10000000000000E+01   1.09999973018371E+01   0.00000000000000E+00   0.00000000000000E+00   2.59529773180618E-02
      1.02865201194128E-03   2.69816293300031E-02  -6.53333240917138E-28   0.00000000000000E+00   2.69816293300031E-06
      0.00000000000000E+00   0.00000000000000E+00   4.64790975756031E-03  -3.16295390875633E-02  -2.69816293300030E-02
     -4.93538163847792E-30
      5.60000000000000E-01
      1.12000000000000E+01   1.11999971839441E+01   0.00000000000000E+00   0.00000000000000E+00   2.71297053562253E-02
      1.03085376851850E-03   2.81605591247438E-02   3.48904869488417E-27   0.00000000000000E+00   2.81605591247437E-06
      0.00000000000000E+00   0.00000000000000E+00   5.42482424404297E-03  -3.35853833687867E-02  -2.81605591247437E-02
      7.49984464670664E-30
      5.70000000000000E-01
      1.14000000000000E+01   1.13999970647094E+01   0.00000000000000E+00   0.00000000000000E+00   2.83199510416641E-02
      1.03295542074631E-03   2.93529064624104E-02   1.96808020053206E-27   0.00000000000000E+00   2.93529064624104E-06
      0.00000000000000E+00   0.00000000000000E+00   6.28388569507210E-03  -3.56367921574824E-02  -2.93529064624103E-02
     -7.88693340266570E-30
      5.80000000000000E-01
      1.16000000000000E+01   1.15999969442213E+01   0.00000000000000E+00   0.00000000000000E+00   2.95228189998571E-02
      1.03496802120879E-03   3.05577870210659E-02   3.82366273136352E-27   0.00000000000000E+00   3.05577870210657E-06
      0.00000000000000E+00   0.00000000000000E+00   7.23009481909540E-03  -3.77878818401611E-02  -3.05577870210657E-02
      5.22569820544721E-30
      5.90000000000000E-01
      1.18000000000000E+01   1.17999968225644E+01   0.00000000000000E+00   0.00000000000000E+00   3.07374548652181E-02
      1.03690152003534E-03   3.17743563852535E-02  -3.07251700042498E-30   0.00000000000000E+00   3.17743563852537E-06
      0.00000000000000E+00   0.00000000000000E+00   8.26854859562248E-03  -4.00429049808761E-02  -3.17743563852536E-02
      1.74189940181574E-30
      6.00000000000000E-01
      1.20000000000000E+01   1.19999966998179E+01   0.00000000000000E+00   0.00000000000000E+00   3.19630567740868E-02
      1.03876477787165E-03   3.30018215519585E-02  -7.36871833062551E-27   0.00000000000000E+00   3.30018215519584E-06
      0.00000000000000E+00   0.00000000000000E+00   9.40443761393115E-03  -4.24062591658895E-02  -3.30018215519583E-02
     -2.61284910272360E-30
      6.10000000000000E-01
      1.22000000000000E+01   1.21999965760552E+01   0.00000000000000E+00   0.00000000000000E+00   3.31988825244371E-02
      1.04056561684398E-03   3.42394481412811E-02  -1.21749090968021E-27   0.00000000000000E+00   3.42394481412812E-06
      0.00000000000000E+00   0.00000000000000E+00   1.06430579715243E-02  -4.48825061128054E-02  -3.42394481412811E-02
      7.74177511918105E-31
      6.20000000000000E-01
      1.24000000000000E+01   1.23999964513435E+01   0.00000000000000E+00   0.00000000000000E+00   3.44442530788204E-02
      1.04231089700565E-03   3.54865639758260E-02   1.31929525249744E-27   0.00000000000000E+00   3.54865639758259E-06
      0.00000000000000E+00   0.00000000000000E+00   1.19898278068048E-02  -4.74763917826307E-02  -3.54865639758259E-02
     -3.91927365408541E-30
      6.30000000000000E-01
      1.26000000000000E+01   1.25999963257441E+01   0.00000000000000E+00   0.00000000000000E+00   3.56985532925581E-02
      1.04400660652640E-03   3.67425598990845E-02  -2.87035989762536E-27   0.00000000000000E+00   3.67425598990844E-06
      0.00000000000000E+00   0.00000000000000E+00   1.34503049949025E-02  -5.01928648939868E-02  -3.67425598990843E-02
     -4.74183726049839E-30
      6.40000000000000E-01
      1.28000000000000E+01   1.27999961993112E+01   0.00000000000000E+00   0.00000000000000E+00   3.69612307067315E-02
      1.04565795639392E-03   3.80068886631254E-02  -1.37716502151332E-27   0.00000000000000E+00   3.80068886631253E-06
      0.00000000000000E+00   0.00000000000000E+00   1.50302083234749E-02  -5.30370969866002E-02  -3.80068886631253E-02
      8.12886387514010E-30
      6.50000000000000E-01
      1.30000000000000E+01   1.29999960720937E+01   0.00000000000000E+00   0.00000000000000E+00   3.82317931052435E-02
      1.04726947324249E-03   3.92790625784860E-02  -5.75238084402400E-27   0.00000000000000E+00   3.92790625784860E-06
      0.00000000000000E+00   0.00000000000000E+00   1.67354431492355E-02  -5.60145057277215E-02  -3.92790625784860E-02
     -2.55962439877924E-29
      6.60000000000000E-01
      1.32000000000000E+01   1.31999959441350E+01   0.00000000000000E+00   0.00000000000000E+00   3.95098053738365E-02
      1.04884508639347E-03   4.05586504602300E-02   8.44942175116869E-28   0.00000000000000E+00   4.05586504602299E-06
      0.00000000000000E+00   0.00000000000000E+00   1.85721296989401E-02  -5.91307801591699E-02  -4.05586504602299E-02
     -4.11281803206493E-30
      6.70000000000000E-01
      1.34000000000000E+01   1.33999958154726E+01   0.00000000000000E+00   0.00000000000000E+00   4.07948860548597E-02
      1.05038820701494E-03   4.18452742618746E-02   4.74812745278273E-27   0.00000000000000E+00   4.18452742618746E-06
      0.00000000000000E+00   0.00000000000000E+00   2.05466327357139E-02  -6.23919069975884E-02  -4.18452742618745E-02
     -1.83867159080550E-30
      6.80000000000000E-01
      1.36000000000000E+01   1.35999956861395E+01   0.00000000000000E+00   0.00000000000000E+00   4.20867039073922E-02
      1.05190179840544E-03   4.31386057057977E-02   7.87945775106624E-27   0.00000000000000E+00   4.31386057057974E-06
      0.00000000000000E+00   0.00000000000000E+00   2.26655932973266E-02  -6.58041990031240E-02  -4.31386057057973E-02
     -7.79016121367593E-30
      6.90000000000000E-01
      1.38000000000000E+01   1.37999955561637E+01   0.00000000000000E+00   0.00000000000000E+00   4.33849747960382E-02
      1.05338843675066E-03   4.44383632327888E-02  -5.93600607263207E-27   0.00000000000000E+00   4.44383632327891E-06
      0.00000000000000E+00   0.00000000000000E+00   2.49359635928706E-02  -6.93743268256596E-02  -4.44383632327890E-02
     -4.35474850453934E-31
      7.00000000000000E-01
      1.40000000000000E+01   1.39999954255690E+01   0.00000000000000E+00   0.00000000000000E+00   4.46894592162266E-02
      1.05485036189454E-03   4.57443095781211E-02   1.85923568096582E-27   0.00000000000000E+00   4.57443095781211E-06
      0.00000000000000E+00   0.00000000000000E+00   2.73650454130537E-02  -7.31093549911748E-02  -4.57443095781211E-02
      4.35474850453934E-31
      7.10000000000000E-01
      1.42000000000000E+01   1.41999952943749E+01   0.00000000000000E+00   0.00000000000000E+00   4.59999602763443E-02
      1.05628951965406E-03   4.70562497959984E-02  -2.80552253100222E-27   0.00000000000000E+00   4.70562497959983E-06
      0.00000000000000E+00   0.00000000000000E+00   2.99605315529029E-02  -7.70167813489013E-02  -4.70562497959983E-02
      0.00000000000000E+00
      7.20000000000000E-01