DF-ISE text

Info {
  version   = 1.0
  type      = xyplot
  datasets  = [
    "time"
    "ntype OuterVoltage" "ntype InnerVoltage" "ntype QuasiFermiPotential" "ntype DisplacementCurrent" "ntype eCurrent"
    "ntype hCurrent" "ntype TotalCurrent" "ntype Charge" "ptype OuterVoltage" "ptype InnerVoltage"
    "ptype QuasiFermiPotential" "ptype DisplacementCurrent" "ptype eCurrent" "ptype hCurrent" "ptype TotalCurrent"
    "ptype Charge" ]
  functions = [
    Time
    OuterVoltage InnerVoltage QuasiFermiPotential DisplacementCurrent eCurrent
    hCurrent TotalCurrent Charge OuterVoltage InnerVoltage
    QuasiFermiPotential DisplacementCurrent eCurrent hCurrent TotalCurrent
    Charge ]
}

Data {
      1.00000000000000E-02
      2.00000000000000E-01   2.00000000000000E-01   0.00000000000000E+00   0.00000000000000E+00   3.75570401380510E-15
      1.27570736775671E-20   3.75571677087878E-15   4.14850277675491E-29   0.00000000000000E+00   0.00000000000000E+00
      0.00000000000000E+00   0.00000000000000E+00  -9.69066940098525E-15   5.93495263010647E-15  -3.75571677087878E-15
      3.20896578690055E-28
      2.00000000000000E-02
      4.00000000000000E-01   4.00000000000000E-01   0.00000000000000E+00   0.00000000000000E+00   6.40981763474850E-15
      5.69389609792655E-21   6.40982332864460E-15  -4.83256118767630E-30   0.00000000000000E+00   0.00000000000000E+00
      0.00000000000000E+00   0.00000000000000E+00  -1.00928871259924E-14   3.68306379734777E-15  -6.40982332864461E-15
      1.73802851425615E-28
      3.00000000000000E-02
      6.00000000000000E-01   6.00000000000000E-01   0.00000000000000E+00   0.00000000000000E+00   8.77036283875449E-15
      8.74271300948787E-22   8.77036371302579E-15  -4.00818310271975E-29   0.00000000000000E+00   0.00000000000000E+00
      0.00000000000000E+00   0.00000000000000E+00  -8.77672708463163E-15   6.36337160582054E-18  -8.77036371302580E-15
      2.99219608356348E-28
      4.00000000000000E-02
      8.00000000000000E-01   8.00000000000000E-01   0.00000000000000E+00   0.00000000000000E+00   1.06981263749255E-14
      3.22305323039851E-20   1.06981586054578E-14   1.53807297875605E-29   0.00000000000000E+00   0.00000000000000E+00
      0.00000000000000E+00   0.00000000000000E+00  -1.06309476344894E-14  -6.72109709683959E-17  -1.06981586054577E-14
      4.72635371026003E-28
      5.00000000000000E-02
      1.00000000000000E+00   1.00000000000000E+00   0.00000000000000E+00   0.00000000000000E+00   1.24248561763859E-14
     -6.43102618480199E-20   1.24247918661241E-14   6.50127662156853E-29   0.00000000000000E+00   0.00000000000000E+00
      0.00000000000000E+00   0.00000000000000E+00  -1.24656397989797E-14   4.08479328556303E-17  -1.24247918661240E-14
      3.27864176297318E-28
      6.00000000000000E-02
      1.20000000000000E+00   1.20000000000000E+00   0.00000000000000E+00   0.00000000000000E+00   1.41881127395497E-14
      7.72750611679681E-20   1.41881900146109E-14  -3.80193737493532E-29   0.00000000000000E+00   0.00000000000000E+00
      0.00000000000000E+00   0.00000000000000E+00  -1.38472546381414E-14  -3.40935376469485E-16  -1.41881900146109E-14
      3.13541892326833E-28
      7.00000000000000E-02
      1.40000000000000E+00   1.40000000000000E+00   0.00000000000000E+00   0.00000000000000E+00   1.61383128754024E-14
     -4.22626404926686E-20   1.61382706127619E-14   4.30454793150090E-29   0.00000000000000E+00   0.00000000000000E+00
      0.00000000000000E+00   0.00000000000000E+00  -1.60934713761214E-14  -4.47992366405267E-17  -1.61382706127619E-14
      4.37797382989688E-28
      8.00000000000000E-02
      1.60000000000000E+00   1.60000000000000E+00   0.00000000000000E+00   0.00000000000000E+00   1.81195754055537E-14
      5.61388028102670E-20   1.81196315443565E-14   7.06436979625271E-30   0.00000000000000E+00   0.00000000000000E+00
      0.00000000000000E+00   0.00000000000000E+00  -1.79351823649800E-14  -1.84449179376557E-16  -1.81196315443566E-14
      3.54960389214451E-28
      9.00000000000000E-02
      1.80000000000000E+00   1.80000000000000E+00   0.00000000000000E+00   0.00000000000000E+00   1.98014510238639E-14
     -1.77425806204187E-20   1.98014332812832E-14  -3.65315013436356E-29   0.00000000000000E+00   0.00000000000000E+00
      0.00000000000000E+00   0.00000000000000E+00  -1.94974969702601E-14  -3.03936311023103E-16  -1.98014332812832E-14
      4.14184968876186E-28
      1.00000000000000E-01
      2.00000000000000E+00   2.00000000000000E+00   0.00000000000000E+00   0.00000000000000E+00   2.12278371742313E-14
     -3.30685300998091E-20   2.12278041057012E-14  -9.39174094145651E-29   0.00000000000000E+00   0.00000000000000E+00
      0.00000000000000E+00   0.00000000000000E+00  -2.09104022640584E-14  -3.17401841642770E-16  -2.12278041057011E-14
      6.38696447332437E-28
      1.10000000000000E-01
      2.20000000000000E+00   2.20000000000000E+00   0.00000000000000E+00   0.00000000000000E+00   2.26607428510272E-14
      3.09505147957163E-20   2.26607738015420E-14  -1.28767493974504E-29   0.00000000000000E+00   0.00000000000000E+00
      0.00000000000000E+00   0.00000000000000E+00  -2.28555972008833E-14   1.94823399341226E-16  -2.26607738015421E-14
      3.72379383232609E-28
      1.20000000000000E-01
      2.40000000000000E+00   2.40000000000000E+00   0.00000000000000E+00   0.00000000000000E+00   2.39476155594244E-14
      4.77468791154807E-21   2.39476203341123E-14  -8.06475229993439E-29   0.00000000000000E+00   0.00000000000000E+00
      0.00000000000000E+00   0.00000000000000E+00  -2.38164813219470E-14  -1.31139012165181E-16  -2.39476203341122E-14
      3.67347229405141E-28
      1.30000000000000E-01
      2.60000000000000E+00   2.60000000000000E+00   0.00000000000000E+00   0.00000000000000E+00   2.50955992266286E-14
     -3.60475512541033E-20   2.50955631790774E-14   7.13997306890096E-29   0.00000000000000E+00   0.00000000000000E+00
      0.00000000000000E+00   0.00000000000000E+00  -2.47354726425883E-14  -3.60090536488966E-16  -2.50955631790772E-14
      2.68639596635582E-28
      1.40000000000000E-01
      2.80000000000000E+00   2.80000000000000E+00   0.00000000000000E+00   0.00000000000000E+00   2.63981783024318E-14
      2.66384109129844E-20   2.63982049408427E-14   4.77812683136955E-29   0.00000000000000E+00   0.00000000000000E+00
      0.00000000000000E+00   0.00000000000000E+00  -2.65498338670564E-14   1.51628926213734E-16  -2.63982049408426E-14
      3.89798377250766E-28
      1.50000000000000E-01
      3.00000000000000E+00   3.00000000000000E+00   0.00000000000000E+00   0.00000000000000E+00   2.75154070444427E-14
     -2.28123741722360E-20   2.75153842320685E-14   3.23037663371453E-29   0.00000000000000E+00   0.00000000000000E+00
      0.00000000000000E+00   0.00000000000000E+00  -2.74791659226964E-14  -3.62183093721138E-17  -2.75153842320685E-14
      3.40251016488007E-28
      1.60000000000000E-01
      3.20000000000000E+00   3.20000000000000E+00   0.00000000000000E+00   0.00000000000000E+00   2.86636692085801E-14
      4.90028223820377E-20   2.86637182114025E-14  -1.27727192942864E-28   0.00000000000000E+00   0.00000000000000E+00
      0.00000000000000E+00   0.00000000000000E+00  -2.84213698484057E-14  -2.42348362996828E-16  -2.86637182114025E-14
      3.69282673184936E-28
      1.70000000000000E-01
      3.40000000000000E+00   3.40000000000000E+00   0.00000000000000E+00   0.00000000000000E+00   2.98824939736986E-14
      1.06869698762405E-20   2.98825046606685E-14   6.03314115733055E-29   0.00000000000000E+00   0.00000000000000E+00
      0.00000000000000E+00   0.00000000000000E+00  -2.93384375233932E-14  -5.44067137275212E-16  -2.98825046606684E-14
      3.88250022226930E-28
      1.80000000000000E-01
      3.60000000000000E+00   3.60000000000000E+00   0.00000000000000E+00   0.00000000000000E+00   3.09308630729106E-14
      1.55691413767619E-20   3.09308786420520E-14  -4.20959022105470E-30   0.00000000000000E+00   0.00000000000000E+00
      0.00000000000000E+00   0.00000000000000E+00  -3.07044866098170E-14  -2.26392032234929E-16  -3.09308786420520E-14
      3.69282673184936E-28
      1.90000000000000E-01
      3.80000000000000E+00   3.80000000000000E+00   0.00000000000000E+00   0.00000000000000E+00   3.22057587039690E-14
     -1.41142125884010E-20   3.22057445897564E-14  -6.34099768355423E-29   0.00000000000000E+00   0.00000000000000E+00
      0.00000000000000E+00   0.00000000000000E+00  -3.16586503190757E-14  -5.47094270680578E-16  -3.22057445897563E-14
      4.18830033947695E-28
      2.00000000000000E-01
      4.00000000000000E+00   4.00000000000000E+00   0.00000000000000E+00   0.00000000000000E+00   3.33393896639900E-14
      1.37965310485666E-20   3.33394034605210E-14   8.36474608580265E-30   0.00000000000000E+00   0.00000000000000E+00
      0.00000000000000E+00   0.00000000000000E+00  -3.29998281719670E-14  -3.39575288554091E-16  -3.33394034605210E-14
      4.91215631312038E-28
      2.10000000000000E-01
      4.20000000000000E+00   4.20000000000000E+00   0.00000000000000E+00   0.00000000000000E+00   3.46427095224750E-14
     -3.20329103198266E-20   3.46426774895647E-14  -8.00366485563460E-29   0.00000000000000E+00   0.00000000000000E+00
      0.00000000000000E+00   0.00000000000000E+00  -3.39514861349680E-14  -6.91191354596716E-16  -3.46426774895648E-14
      4.35861939209893E-28
      2.20000000000000E-01
      4.40000000000000E+00   4.40000000000000E+00   0.00000000000000E+00   0.00000000000000E+00   3.60793182534509E-14
      9.22578557964105E-21   3.60793274792365E-14   8.34660130036707E-31   0.00000000000000E+00   0.00000000000000E+00
      0.00000000000000E+00   0.00000000000000E+00  -3.57296180076007E-14  -3.49709471635781E-16  -3.60793274792364E-14
      5.26827796860271E-28
      2.30000000000000E-01
      4.60000000000000E+00   4.60000000000000E+00   0.00000000000000E+00   0.00000000000000E+00   3.75378935701116E-14
     -3.55019572433834E-20   3.75378580681544E-14   1.27497358994013E-29   0.00000000000000E+00   0.00000000000000E+00
      0.00000000000000E+00   0.00000000000000E+00  -3.78398730119034E-14   3.02014943749151E-16  -3.75378580681542E-14
      4.27733075334753E-28
      2.40000000000000E-01
      4.80000000000000E+00   4.80000000000000E+00   0.00000000000000E+00   0.00000000000000E+00   3.91370118015964E-14
      1.67409499374354E-20   3.91370285425464E-14   1.83262332899364E-30   0.00000000000000E+00   0.00000000000000E+00
      0.00000000000000E+00   0.00000000000000E+00  -3.84849478223697E-14  -6.52080720176687E-16  -3.91370285425464E-14
      3.17799868642382E-28
      2.50000000000000E-01
      5.00000000000000E+00   5.00000000000000E+00   0.00000000000000E+00   0.00000000000000E+00   4.08092108074742E-14
      4.20882254936432E-20   4.08092528956997E-14  -1.01913211529844E-29   0.00000000000000E+00   0.00000000000000E+00
      0.00000000000000E+00   0.00000000000000E+00  -3.97555916025699E-14  -1.05366129312976E-15  -4.08092528956997E-14
      3.71218116964731E-28
      2.60000000000000E-01
      5.20000000000000E+00   5.20000000000000E+00   0.00000000000000E+00   0.00000000000000E+00   4.24462671517679E-14
     -1.13644312888910E-21   4.24462660153248E-14  -1.79996271520959E-29   0.00000000000000E+00   0.00000000000000E+00
      0.00000000000000E+00   0.00000000000000E+00  -4.20216822001388E-14  -4.24583815185928E-16  -4.24462660153247E-14
      3.49154057875065E-28
      2.70000000000000E-01
      5.40000000000000E+00   5.40000000000000E+00   0.00000000000000E+00   0.00000000000000E+00   4.40081521777238E-14
     -3.89634785705167E-20   4.40081132142452E-14   9.15616114388456E-29   0.00000000000000E+00   0.00000000000000E+00
      0.00000000000000E+00   0.00000000000000E+00  -4.34196399161498E-14  -5.88473298095434E-16  -4.40081132142453E-14
      5.15215134181499E-28
      2.80000000000000E-01
      5.60000000000000E+00   5.60000000000000E+00   0.00000000000000E+00   0.00000000000000E+00   4.55648234802065E-14
     -4.71744850178321E-20   4.55647763057214E-14  -6.56569060986484E-29   0.00000000000000E+00   0.00000000000000E+00
      0.00000000000000E+00   0.00000000000000E+00  -4.52577720292414E-14  -3.07004276479972E-16  -4.55647763057214E-14
      3.19735312422177E-28
      2.90000000000000E-01
      5.80000000000000E+00   5.80000000000000E+00   0.00000000000000E+00   0.00000000000000E+00   4.70958781872591E-14
      4.09549180305979E-20   4.70959191421771E-14   9.59738184305976E-29   0.00000000000000E+00   0.00000000000000E+00
      0.00000000000000E+00   0.00000000000000E+00  -4.75078319408176E-14   4.11912798640602E-16  -4.70959191421770E-14
      3.86314578447134E-28
      3.00000000000000E-01
      6.00000000000000E+00   6.00000000000000E+00   0.00000000000000E+00   0.00000000000000E+00   4.85670287290970E-14
      3.04333676585276E-20   4.85670591624647E-14  -2.23755445729768E-29   0.00000000000000E+00   0.00000000000000E+00
      0.00000000000000E+00   0.00000000000000E+00  -4.93018039029765E-14   7.34744740511675E-16  -4.85670591624648E-14
      2.80639348070313E-28
      3.10000000000000E-01
      6.20000000000000E+00   6.20000000000000E+00   0.00000000000000E+00   0.00000000000000E+00   5.00112281439306E-14
      3.41107062369364E-20   5.00112622546368E-14   5.93304242434426E-29   0.00000000000000E+00   0.00000000000000E+00
      0.00000000000000E+00   0.00000000000000E+00  -5.02657773715614E-14   2.54515116924728E-16  -5.00112622546367E-14
      3.67347229405141E-28
      3.20000000000000E-01
      6.40000000000000E+00   6.40000000000000E+00   0.00000000000000E+00   0.00000000000000E+00   5.14598723708694E-14
      9.93041511278081E-21   5.14598823012846E-14   9.30192425355039E-29   0.00000000000000E+00   0.00000000000000E+00
      0.00000000000000E+00   0.00000000000000E+00  -5.16307693609457E-14   1.70887059661175E-16  -5.14598823012845E-14
      4.33926495430098E-28
      3.30000000000000E-01
      6.60000000000000E+00   6.60000000000000E+00   0.00000000000000E+00   0.00000000000000E+00   5.29097547120604E-14
     -3.61658678939929E-20   5.29097185461925E-14   2.82000206977982E-30   0.00000000000000E+00   0.00000000000000E+00
      0.00000000000000E+00   0.00000000000000E+00  -5.34760785363701E-14   5.66359990177795E-16  -5.29097185461923E-14
      3.63863430601509E-28
      3.40000000000000E-01
      6.80000000000000E+00   6.80000000000000E+00   0.00000000000000E+00   0.00000000000000E+00   5.43927812655164E-14
      1.30012172773308E-20   5.43927942667337E-14   1.60188214087117E-29   0.00000000000000E+00   0.00000000000000E+00
      0.00000000000000E+00   0.00000000000000E+00  -5.44258086631741E-14   3.30143964403291E-17  -5.43927942667338E-14
      5.01667027722932E-28
      3.50000000000000E-01
      7.00000000000000E+00   7.00000000000000E+00   0.00000000000000E+00   0.00000000000000E+00   5.59597144280813E-14
     -5.84092009936101E-20   5.59596560188803E-14   6.97568715743631E-29   0.00000000000000E+00   0.00000000000000E+00
      0.00000000000000E+00   0.00000000000000E+00  -5.58151700459375E-14  -1.44485972942470E-16  -5.59596560188800E-14
      3.23993288737727E-28
      3.60000000000000E-01
      7.20000000000000E+00   7.20000000000000E+00   0.00000000000000E+00   0.00000000000000E+00   5.76613744635438E-14
      9.69423425999003E-21   5.76613841577780E-14  -1.24524260297120E-28   0.00000000000000E+00   0.00000000000000E+00
      0.00000000000000E+00   0.00000000000000E+00  -5.80617190373871E-14   4.00334879609215E-16  -5.76613841577779E-14
      4.41668270549279E-28
      3.70000000000000E-01
      7.40000000000000E+00   7.40000000000000E+00   0.00000000000000E+00   0.00000000000000E+00   5.96041149688944E-14
      5.14225433160650E-20   5.96041663914377E-14   7.28234348170670E-29   0.00000000000000E+00   0.00000000000000E+00
      0.00000000000000E+00   0.00000000000000E+00  -5.99119623377560E-14   3.07795946318479E-16  -5.96041663914375E-14
      3.16638602374505E-28
      3.80000000000000E-01
      7.60000000000000E+00   7.60000000000000E+00   0.00000000000000E+00   0.00000000000000E+00   6.19609108933481E-14
      1.08468124967599E-20   6.19609217401606E-14  -5.92517968398884E-29   0.00000000000000E+00   0.00000000000000E+00
      0.00000000000000E+00   0.00000000000000E+00  -6.17696176274186E-14  -1.91304112742001E-16  -6.19609217401606E-14
      4.31216874138384E-28
      3.90000000000000E-01
      7.80000000000000E+00   7.80000000000001E+00   0.00000000000000E+00   0.00000000000000E+00   6.50484695998288E-14
      5.37448971309159E-20   6.50485233447259E-14   2.57655953185244E-29   0.00000000000000E+00   0.00000000000000E+00
      0.00000000000000E+00   0.00000000000000E+00  -6.49563570615970E-14  -9.21662831290370E-17  -6.50485233447260E-14
      4.44764980596951E-28
      4.00000000000000E-01
      8.00000000000000E+00   8.00000000000001E+00   0.00000000000000E+00   0.00000000000000E+00   6.94510913655274E-14
      1.20722039421165E-20   6.94511034377313E-14  -5.54353436366046E-29   0.00000000000000E+00   0.00000000000000E+00
      0.00000000000000E+00   0.00000000000000E+00  -6.95440116045545E-14   9.29081668232355E-17  -6.94511034377312E-14
      4.08378637536800E-28
      4.10000000000000E-01
      8.20000000000000E+00   8.20000000000001E+00   0.00000000000000E+00   0.00000000000000E+00   7.62111177434680E-14
     -6.56471610029215E-20   7.62110520963070E-14  -2.60423032964170E-29   0.00000000000000E+00   0.00000000000000E+00
      0.00000000000000E+00   0.00000000000000E+00  -7.60137292222694E-14  -1.97322874037668E-16  -7.62110520963070E-14
      4.06443193757005E-28
      4.20000000000000E-01
      8.40000000000000E+00   8.40000000000001E+00   0.00000000000000E+00   0.00000000000000E+00   8.72877965379040E-14
     -3.45945825127824E-20   8.72877619433215E-14  -4.45681292261448E-29   0.00000000000000E+00   0.00000000000000E+00
      0.00000000000000E+00   0.00000000000000E+00  -8.71113928307565E-14  -1.76369112565285E-16  -8.72877619433218E-14
      4.41668270549279E-28
      4.30000000000000E-01
      8.60000000000000E+00   8.60000000000001E+00   0.00000000000000E+00   0.00000000000000E+00   1.06571797723595E-13
     -1.76686092594398E-20   1.06571780054986E-13   5.57831186907866E-29   0.00000000000000E+00   0.00000000000000E+00
      0.00000000000000E+00   0.00000000000000E+00  -1.07258696515448E-13   6.86916460461385E-16  -1.06571780054986E-13
      5.11731335377867E-28
      4.40000000000000E-01
      8.80000000000000E+00   8.80000000000001E+00   0.00000000000000E+00   0.00000000000000E+00   1.42017657881168E-13
     -2.71039611123386E-21   1.42017655170772E-13  -5.74887285217312E-30   0.00000000000000E+00   0.00000000000000E+00
      0.00000000000000E+00   0.00000000000000E+00  -1.42172301503243E-13   1.54646332471957E-16  -1.42017655170771E-13
      5.02054116478891E-28
      4.50000000000000E-01
      9.00000000000001E+00   9.00000000000001E+00   0.00000000000000E+00   0.00000000000000E+00   2.10421013598884E-13
      1.01980059238069E-20   2.10421023796890E-13  -6.41720578238367E-30   0.00000000000000E+00   0.00000000000000E+00
      0.00000000000000E+00   0.00000000000000E+00  -2.10652522172605E-13   2.31498375715179E-16  -2.10421023796890E-13
      3.54960389214451E-28
      4.60000000000000E-01
      9.20000000000000E+00   9.20000000000001E+00   0.00000000000000E+00   0.00000000000000E+00   3.48435364525998E-13
      4.88093651486331E-20   3.48435413335363E-13  -1.86951772604599E-28   0.00000000000000E+00   0.00000000000000E+00
      0.00000000000000E+00   0.00000000000000E+00  -3.48270883414026E-13  -1.64529921337164E-16  -3.48435413335364E-13
      4.42442448061197E-28
      4.70000000000000E-01
      9.40000000000001E+00   9.40000000000001E+00   0.00000000000000E+00   0.00000000000000E+00   6.38564704968113E-13
     -1.32393919291722E-20   6.38564691728721E-13  -3.81312665928726E-29   0.00000000000000E+00   0.00000000000000E+00
      0.00000000000000E+00   0.00000000000000E+00  -6.38731637463316E-13   1.66945734596839E-16  -6.38564691728719E-13
      3.42573549023761E-28
      4.80000000000000E-01
      9.60000000000000E+00   9.60000000000001E+00   0.00000000000000E+00   0.00000000000000E+00   1.27167282666155E-12
     -1.10116512390399E-20   1.27167281564990E-12   6.79945592889323E-29   0.00000000000000E+00   1.83689474415054E-16
      0.00000000000000E+00   0.00000000000000E+00  -1.27238723155462E-12   7.14415904723961E-16  -1.27167281564990E-12
      3.64250519357468E-28
      4.90000000000000E-01
      9.80000000000001E+00   9.80000000000001E+00   0.00000000000000E+00   0.00000000000000E+00   2.69919948921737E-12
     -3.37767536743163E-20   2.69919945544062E-12   6.00169019590887E-29   0.00000000000000E+00   1.83689474415054E-16
      0.00000000000000E+00   0.00000000000000E+00  -2.69918410231128E-12  -1.53531293380517E-17  -2.69919945544062E-12
      6.14309855707016E-28
      5.00000000000000E-01
      1.00000000000000E+01   1.00000000000000E+01   0.00000000000000E+00   0.00000000000000E+00   6.00438941372587E-12
      1.95249721259049E-20   6.00438943325084E-12  -1.78828956991270E-28   0.00000000000000E+00   5.51068423245161E-16
      0.00000000000000E+00   0.00000000000000E+00  -6.00415512237712E-12  -2.34310873733733E-16  -6.00438943325086E-12
      4.13604335742248E-28
      5.10000000000000E-01
      1.02000000000000E+01   1.02000000000000E+01   0.00000000000000E+00   0.00000000000000E+00   1.37929893204462E-11
     -2.85303461047406E-20   1.37929892919158E-11   3.66766596271202E-29   0.00000000000000E+00   1.46951579532043E-15
      0.00000000000000E+00   0.00000000000000E+00  -1.37923147716605E-11  -6.74520255299025E-16  -1.37929892919158E-11
      5.41343625208735E-28
      5.20000000000000E-01
      1.04000000000000E+01   1.04000000000000E+01   0.00000000000000E+00   0.00000000000000E+00   3.22203510239596E-11
     -3.96615903445102E-20   3.22203509842980E-11  -3.41908240224457E-29   0.00000000000000E+00   3.30641053947096E-15
      0.00000000000000E+00   0.00000000000000E+00  -3.22200143180645E-11  -3.36666233559325E-16  -3.22203509842981E-11
      3.75089004524322E-28
      5.30000000000000E-01
      1.06000000000000E+01   1.06000000000000E+01   0.00000000000000E+00   0.00000000000000E+00   7.49689913234329E-11
      3.38909035248225E-20   7.49689913573238E-11   1.04211551018351E-29   0.00000000000000E+00   7.53126845101719E-15
      0.00000000000000E+00   0.00000000000000E+00  -7.49688098516276E-11  -1.81505696028136E-16  -7.49689913573236E-11
      3.48766969119106E-28
      5.40000000000000E-01
      1.08000000000000E+01   1.08000000000000E+01   0.00000000000000E+00   0.00000000000000E+00   1.68088525004702E-10
      9.70672762914626E-21   1.68088525014408E-10   6.69965960899754E-29   0.00000000000000E+00   1.68994316461849E-14
      0.00000000000000E+00   0.00000000000000E+00  -1.68088887556275E-10   3.62541867053858E-16  -1.68088525014408E-10
      1.04901052864903E-28
      5.50000000000000E-01
      1.10000000000000E+01   1.10000000000000E+01   0.00000000000000E+00   0.00000000000000E+00   3.46002659180093E-10
      5.67067186152992E-20   3.46002659236800E-10  -9.28952531683608E-29   0.00000000000000E+00   3.45336211900301E-14
      0.00000000000000E+00   0.00000000000000E+00  -3.46004214558928E-10   1.55532212914166E-15  -3.46002659236799E-10
      3.98120785503886E-28
      5.60000000000000E-01
      1.12000000000000E+01   1.12000000000000E+01   0.00000000000000E+00   0.00000000000000E+00   6.23427465230648E-10
     -2.19052330304999E-20   6.23427465208743E-10   5.32730900388646E-29   0.00000000000000E+00   6.22707318267031E-14
      0.00000000000000E+00   0.00000000000000E+00  -6.23431189028295E-10   3.72381955147981E-15  -6.23427465208744E-10
      5.50827299729732E-28
      5.70000000000000E-01
      1.14000000000000E+01   1.13999999999999E+01   0.00000000000000E+00   0.00000000000000E+00   9.67095415072041E-10
     -3.79211440884284E-20   9.67095415034120E-10  -4.60756584827510E-29   0.00000000000000E+00   9.66206635423181E-14
      0.00000000000000E+00   0.00000000000000E+00  -9.67101556314319E-10   6.14128020120101E-15  -9.67095415034118E-10
      2.07286028816073E-28
      5.80000000000000E-01
      1.16000000000000E+01   1.15999999999999E+01   0.00000000000000E+00   0.00000000000000E+00   1.31982456609987E-09
     -3.51281395349483E-20   1.31982456606474E-09   6.80489936452391E-29   0.00000000000000E+00   1.32072732104423E-13
      0.00000000000000E+00   0.00000000000000E+00  -1.31983275796311E-09   8.19189836714781E-15  -1.31982456606474E-09
      1.37803597121423E-28
      5.90000000000000E-01
      1.18000000000000E+01   1.17999999999998E+01   0.00000000000000E+00   0.00000000000000E+00   1.64475548714447E-09
     -2.83050934904568E-20   1.64475548711616E-09   1.35299616731313E-28   0.00000000000000E+00   1.64402079601473E-13
      0.00000000000000E+00   0.00000000000000E+00  -1.64476320368509E-09   7.71656893289937E-15  -1.64475548711616E-09
      3.42186460267802E-28
      6.00000000000000E-01
      1.20000000000000E+01   1.19999999999998E+01   0.00000000000000E+00   0.00000000000000E+00   1.93361802628875E-09
     -1.48997747190769E-20   1.93361802627385E-09   2.91284288859187E-29   0.00000000000000E+00   1.93425016559051E-13
      0.00000000000000E+00   0.00000000000000E+00  -1.93362458588516E-09   6.55961130843509E-15  -1.93361802627386E-09
      1.33545620805873E-28
      6.10000000000000E-01
      1.22000000000000E+01   1.21999999999998E+01   0.00000000000000E+00   0.00000000000000E+00   2.19210243276448E-09
      8.34383422527555E-21   2.19210243277283E-09   4.38378016123627E-29   0.00000000000000E+00   2.19141542977159E-13
      0.00000000000000E+00   0.00000000000000E+00  -2.19210652145228E-09   4.08867946229271E-15  -2.19210243277282E-09
      2.69800862903460E-28
      6.20000000000000E-01
      1.24000000000000E+01   1.23999999999998E+01   0.00000000000000E+00   0.00000000000000E+00   2.42789872445287E-09
     -6.67571511850496E-20   2.42789872438611E-09   5.89705526656369E-29   0.00000000000000E+00   2.42837485176701E-13
      0.00000000000000E+00   0.00000000000000E+00  -2.42790188419817E-09   3.15981205470396E-15  -2.42789872438611E-09
      4.22313832751326E-28
      6.30000000000000E-01
      1.26000000000000E+01   1.25999999999997E+01   0.00000000000000E+00   0.00000000000000E+00   2.64636425075081E-09
      2.05193236110420E-20   2.64636425077133E-09   6.91316325095620E-29   0.00000000000000E+00   2.64696532632092E-13
      0.00000000000000E+00   0.00000000000000E+00  -2.64636646445074E-09   2.21367942393193E-15  -2.64636425077132E-09
      1.73996395803594E-28
      6.40000000000000E-01
      1.28000000000000E+01   1.27999999999997E+01   0.00000000000000E+00   0.00000000000000E+00   2.85028531413948E-09
     -9.62449856712221E-22   2.85028531413852E-09   5.42771014996334E-29   0.00000000000000E+00   2.85086064292163E-13
      0.00000000000000E+00   0.00000000000000E+00  -2.85028770367529E-09   2.38953676192661E-15  -2.85028531413853E-09
      2.86252135031719E-28
      6.50000000000000E-01
      1.30000000000000E+01   1.29999999999997E+01   0.00000000000000E+00   0.00000000000000E+00   3.04063936636897E-09
     -8.14693486600826E-21   3.04063936636082E-09   5.76399350670277E-29   0.00000000000000E+00   3.04006080156914E-13
      0.00000000000000E+00   0.00000000000000E+00  -3.04064058598129E-09   1.21962046047563E-15  -3.04063936636083E-09
      2.58575288980647E-28
      6.60000000000000E-01
      1.32000000000000E+01   1.31999999999997E+01   0.00000000000000E+00   0.00000000000000E+00   3.21731721114100E-09
      3.96477850992959E-22   3.21731721114139E-09   8.28974763933558E-29   0.00000000000000E+00   3.21640269700759E-13
      0.00000000000000E+00   0.00000000000000E+00  -3.21731923292709E-09   2.02178569799960E-15  -3.21731721114139E-09
      2.79865170558395E-28
      6.70000000000000E-01
      1.34000000000000E+01   1.33999999999997E+01   0.00000000000000E+00   0.00000000000000E+00   3.37984341339474E-09
      7.18735674395401E-20   3.37984341346661E-09   5.87044291459151E-29   0.00000000000000E+00   3.37988632923698E-13
      0.00000000000000E+00   0.00000000000000E+00  -3.37984487173561E-09   1.45826899329214E-15  -3.37984341346662E-09
      3.67347229405141E-28
      6.80000000000000E-01
      1.36000000000000E+01   1.35999999999997E+01   0.00000000000000E+00   0.00000000000000E+00   3.52808857101693E-09
     -1.37754873306760E-20   3.52808857100316E-09   9.63609071865566E-29   0.00000000000000E+00   3.52867480351318E-13
      0.00000000000000E+00   0.00000000000000E+00  -3.52808974090660E-09   1.16990342998436E-15  -3.52808857100317E-09
      3.18961134910259E-28
      6.90000000000000E-01
      1.38000000000000E+01   1.37999999999997E+01   0.00000000000000E+00   0.00000000000000E+00   3.66272511276964E-09
      2.83522557147136E-20   3.66272511279800E-09   1.31283570888237E-28   0.00000000000000E+00   3.66276811983617E-13
      0.00000000000000E+00   0.00000000000000E+00  -3.66272588941513E-09   7.76617127383866E-16  -3.66272511279801E-09
      3.97540152369947E-28
      7.00000000000000E-01
      1.40000000000000E+01   1.39999999999996E+01   0.00000000000000E+00   0.00000000000000E+00   3.78527237291675E-09
      1.94973653704566E-20   3.78527237293625E-09   6.77042427219630E-29   0.00000000000000E+00   3.78584006769425E-13
      0.00000000000000E+00   0.00000000000000E+00  -3.78527258530432E-09   2.12368055474256E-16  -3.78527237293626E-09
      3.36767217684376E-28
      7.10000000000000E-01
      1.42000000000000E+01   1.41999999999996E+01   0.00000000000000E+00   0.00000000000000E+00   3.89782922878155E-09
      4.59495075660921E-20   3.89782922882750E-09   2.79913556652890E-29   0.00000000000000E+00   3.89789064708744E-13
      0.00000000000000E+00   0.00000000000000E+00  -3.89784635102514E-09   1.71221976371633E-14  -3.89782922882750E-09
      3.88056477848950E-28
      7.20000000000000E-01