DF-ISE text

Info {
  version   = 1.0
  type      = xyplot
  datasets  = [
    "time"
    "ntype OuterVoltage" "ntype InnerVoltage" "ntype QuasiFermiPotential" "ntype DisplacementCurrent" "ntype eCurrent"
    "ntype hCurrent" "ntype TotalCurrent" "ntype Charge" "ptype OuterVoltage" "ptype InnerVoltage"
    "ptype QuasiFermiPotential" "ptype DisplacementCurrent" "ptype eCurrent" "ptype hCurrent" "ptype TotalCurrent"
    "ptype Charge" ]
  functions = [
    Time
    OuterVoltage InnerVoltage QuasiFermiPotential DisplacementCurrent eCurrent
    hCurrent TotalCurrent Charge OuterVoltage InnerVoltage
    QuasiFermiPotential DisplacementCurrent eCurrent hCurrent TotalCurrent
    Charge ]
}

Data {
      1.00000000000000E-02
      2.00000000000000E-01   1.99999999999357E-01   0.00000000000000E+00   0.00000000000000E+00   8.32032050515325E-09
     -1.88819881040966E-09   6.43212169474360E-09   2.61385557129073E-28   0.00000000000000E+00   6.43212169459739E-13
      0.00000000000000E+00   0.00000000000000E+00   3.77805845810796E-10  -6.80992754040478E-09  -6.43212169459398E-09
      7.35468636322200E-30
      2.00000000000000E-02
      4.00000000000000E-01   3.99999999999128E-01   0.00000000000000E+00   0.00000000000000E+00   1.02864340273217E-08
     -1.57571533688289E-09   8.71071869043882E-09  -1.91562060170689E-27   0.00000000000000E+00   8.71071869040113E-13
      0.00000000000000E+00   0.00000000000000E+00   3.77661164246783E-10  -9.08837985464586E-09  -8.71071869039908E-09
      2.15801981447172E-29
      3.00000000000000E-02
      6.00000000000000E-01   5.99999999998892E-01   0.00000000000000E+00   0.00000000000000E+00   1.21676886565167E-08
     -1.08380670620242E-09   1.10838819503143E-08   2.13950154886926E-27   0.00000000000000E+00   1.10838819504478E-12
      0.00000000000000E+00   0.00000000000000E+00   3.77558463744674E-10  -1.14614404141823E-08  -1.10838819504376E-08
      2.93219732638982E-29
      4.00000000000000E-02
      8.00000000000000E-01   7.99999999998488E-01   0.00000000000000E+00   0.00000000000000E+00   1.38182261498827E-08
      1.34036478753308E-09   1.51585909374158E-08   6.74886221883702E-28   0.00000000000000E+00   1.51585909373740E-12
      0.00000000000000E+00   0.00000000000000E+00   3.77481347309230E-10  -1.55360722846936E-08  -1.51585909373844E-08
     -7.93531949716058E-30
      5.00000000000000E-02
      1.00000000000000E+00   9.99999999996379E-01   0.00000000000000E+00   0.00000000000000E+00   1.53245907938924E-08
      2.08289526034839E-08   3.61535433973763E-08   5.62917775091640E-28   0.00000000000000E+00   3.61535433973629E-12
      0.00000000000000E+00   0.00000000000000E+00   3.77421413077045E-10  -3.65309648104498E-08  -3.61535433973728E-08
     -1.25803845686692E-29
      6.00000000000000E-02
      1.20000000000000E+00   1.19999999998152E+00   0.00000000000000E+00   0.00000000000000E+00   2.00035588616527E-08
      1.64805400517651E-07   1.84808959379304E-07   1.08200984509454E-27   0.00000000000000E+00   1.84808959379290E-11
      0.00000000000000E+00   0.00000000000000E+00   3.77374202898706E-10  -1.85186333582189E-07  -1.84808959379290E-07
      1.79028549631062E-29
      7.00000000000000E-02
      1.40000000000000E+00   1.39999999989452E+00   0.00000000000000E+00   0.00000000000000E+00   5.34199812802634E-08
      1.00131049545914E-06   1.05473047673941E-06   9.65695722190658E-28   0.00000000000000E+00   1.05473047673939E-10
      0.00000000000000E+00   0.00000000000000E+00   3.77335964805760E-10  -1.05510781270420E-06  -1.05473047673940E-06
      2.19672869006762E-29
      8.00000000000000E-02
      1.60000000000000E+00   1.59999999950820E+00   0.00000000000000E+00   0.00000000000000E+00   2.78283283998789E-07
      4.63978053676512E-06   4.91806382076391E-06  -7.38964531649455E-28   0.00000000000000E+00   4.91806382076391E-10
      0.00000000000000E+00   0.00000000000000E+00   3.77294621043879E-10  -4.91844111538494E-06  -4.91806382076390E-06
      2.12898815777479E-30
      9.00000000000000E-02
      1.80000000000000E+00   1.79999999824070E+00   0.00000000000000E+00   0.00000000000000E+00   1.34914054632364E-06
      1.62438733616479E-05   1.75930139079715E-05  -1.70454533686569E-27   0.00000000000000E+00   1.75930139079716E-09
      0.00000000000000E+00   0.00000000000000E+00   3.77202647845312E-10  -1.75933911106195E-05  -1.75930139079716E-05
     -7.83854730817081E-30
      1.00000000000000E-01
      2.00000000000000E+00   1.99999999520149E+00   0.00000000000000E+00   0.00000000000000E+00   4.89649634835431E-06
      4.30887313030504E-05   4.79852276514047E-05   1.64222404715628E-28   0.00000000000000E+00   4.79852276514047E-09
      0.00000000000000E+00   0.00000000000000E+00   3.76880622615375E-10  -4.79856045320273E-05  -4.79852276514047E-05
     -7.83854730817081E-30
      1.10000000000000E-01
      2.20000000000000E+00   2.19999998973461E+00   0.00000000000000E+00   0.00000000000000E+00   1.34341298257506E-05
      8.92198823089747E-05   1.02654012134725E-04   1.02735775136257E-27   0.00000000000000E+00   1.02654012134726E-08
      0.00000000000000E+00   0.00000000000000E+00   3.75919132908791E-10  -1.02654388053859E-04  -1.02654012134726E-04
      6.77405322928342E-30
      1.20000000000000E-01
      2.40000000000000E+00   2.39999998185711E+00   0.00000000000000E+00   0.00000000000000E+00   2.95106395927460E-05
      1.51918143156280E-04   1.81428782749026E-04  -2.63486477571878E-28   0.00000000000000E+00   1.81428782749026E-08
      0.00000000000000E+00   0.00000000000000E+00   3.73866585028268E-10  -1.81429156615612E-04  -1.81428782749027E-04
     -6.77405322928342E-30
      1.30000000000000E-01
      2.60000000000000E+00   2.59999997205773E+00   0.00000000000000E+00   0.00000000000000E+00   5.51322398488451E-05
      2.24290602972206E-04   2.79422842821051E-04   3.52265283751086E-27   0.00000000000000E+00   2.79422842821050E-08
      0.00000000000000E+00   0.00000000000000E+00   3.70555374749090E-10  -2.79423213376425E-04  -2.79422842821050E-04
      1.35481064585668E-29
      1.40000000000000E-01
      2.80000000000000E+00   2.79999996088639E+00   0.00000000000000E+00   0.00000000000000E+00   9.18242960186950E-05
      2.99311909848295E-04   3.91136205866990E-04   1.36097987290478E-27   0.00000000000000E+00   3.91136205866990E-08
      0.00000000000000E+00   0.00000000000000E+00   3.66184783552418E-10  -3.91136572051774E-04  -3.91136205866990E-04
      7.06436979625271E-30
      1.50000000000000E-01
      3.00000000000000E+00   2.99999994876305E+00   0.00000000000000E+00   0.00000000000000E+00   1.40842430245026E-04
      3.71526998800625E-04   5.12369429045651E-04   7.11807836114203E-28   0.00000000000000E+00   5.12369429045654E-08
      0.00000000000000E+00   0.00000000000000E+00   3.61097238112723E-10  -5.12369790142892E-04  -5.12369429045654E-04
      1.67415886952290E-29
      1.60000000000000E-01
      3.20000000000000E+00   3.19999993585864E+00   0.00000000000000E+00   0.00000000000000E+00   2.03566699178519E-04
      4.37846870176160E-04   6.41413569354679E-04   4.64479894798891E-27   0.00000000000000E+00   6.41413569354679E-08
      0.00000000000000E+00   0.00000000000000E+00   3.55504996068465E-10  -6.41413924859676E-04  -6.41413569354680E-04
     -1.00643076549354E-29
      1.70000000000000E-01
      3.40000000000000E+00   3.39999992210427E+00   0.00000000000000E+00   0.00000000000000E+00   2.81719251675821E-04
      4.97238170819840E-04   7.78957422495661E-04  -2.99340573592585E-28   0.00000000000000E+00   7.78957422495654E-08
      0.00000000000000E+00   0.00000000000000E+00   3.49459446193238E-10  -7.78957771955102E-04  -7.78957422495656E-04
     -1.68383608842188E-29
      1.80000000000000E-01
      3.60000000000000E+00   3.59999990728647E+00   0.00000000000000E+00   0.00000000000000E+00   3.77345028161258E-04
      5.49790264770818E-04   9.27135292932076E-04  -3.88690335686833E-27   0.00000000000000E+00   9.27135292932071E-08
      0.00000000000000E+00   0.00000000000000E+00   3.42933593980389E-10  -9.27135635865667E-04  -9.27135292932073E-04
      2.94187454528880E-29
      1.90000000000000E-01
      3.80000000000000E+00   3.79999989111349E+00   0.00000000000000E+00   0.00000000000000E+00   4.92724076589451E-04
      5.96140901744270E-04   1.08886497833372E-03   1.99222486168501E-27   0.00000000000000E+00   1.08886497833372E-07
      0.00000000000000E+00   0.00000000000000E+00   3.35870143534616E-10  -1.08886531420386E-03  -1.08886497833372E-03
     -1.19997514347306E-29
      2.00000000000000E-01
      4.00000000000000E+00   3.99999987325897E+00   0.00000000000000E+00   0.00000000000000E+00   6.30292853111858E-04
      6.37117594950708E-04   1.26741044806257E-03  -1.67311856849126E-27   0.00000000000000E+00   1.26741044806256E-07
      0.00000000000000E+00   0.00000000000000E+00   3.28206932703371E-10  -1.26741077626949E-03  -1.26741044806256E-03
     -1.60641833723007E-29
      2.10000000000000E-01
      4.20000000000000E+00   4.19999985339013E+00   0.00000000000000E+00   0.00000000000000E+00   7.92566103923927E-04
      6.73532666910065E-04   1.46609877083399E-03   1.00217278917799E-27   0.00000000000000E+00   1.46609877083398E-07
      0.00000000000000E+00   0.00000000000000E+00   3.19891312568198E-10  -1.46609909072529E-03  -1.46609877083397E-03
     -1.81931715300755E-29
      2.20000000000000E-01
      4.40000000000000E+00   4.39999983118609E+00   0.00000000000000E+00   0.00000000000000E+00   9.82045982644138E-04
      7.06093361594494E-04   1.68813934423863E-03  -1.65538506485889E-27   0.00000000000000E+00   1.68813934423864E-07
      0.00000000000000E+00   0.00000000000000E+00   3.10886277760362E-10  -1.68813965512492E-03  -1.68813934423864E-03
     -1.61609555612904E-29
      2.30000000000000E-01
      4.60000000000000E+00   4.59999980635058E+00   0.00000000000000E+00   0.00000000000000E+00   1.20111532812912E-03
      7.35378936624336E-04   1.93649426475346E-03   3.25536805152114E-27   0.00000000000000E+00   1.93649426475346E-07
      0.00000000000000E+00   0.00000000000000E+00   3.01171136061671E-10  -1.93649456592460E-03  -1.93649426475346E-03
     -6.38696447332437E-30
      2.40000000000000E-01
      4.80000000000000E+00   4.79999977862102E+00   0.00000000000000E+00   0.00000000000000E+00   1.45194010024798E-03
      7.61849917243308E-04   2.21379001749128E-03  -2.34130634041833E-27   0.00000000000000E+00   2.21379001749129E-07
      0.00000000000000E+00   0.00000000000000E+00   2.90739068865194E-10  -2.21379030823036E-03  -2.21379001749129E-03
      1.26771567576590E-29
      2.50000000000000E-01
      5.00000000000000E+00   4.99999974777112E+00   0.00000000000000E+00   0.00000000000000E+00   1.73641992693521E-03
      7.85868692266957E-04   2.52228861920216E-03  -3.22311871954030E-27   0.00000000000000E+00   2.52228861920215E-07
      0.00000000000000E+00   0.00000000000000E+00   2.79593312778647E-10  -2.52228889879546E-03  -2.52228861920215E-03
     -1.33545620805873E-29
      2.60000000000000E-01
      5.20000000000000E+00   5.19999971360965E+00   0.00000000000000E+00   0.00000000000000E+00   2.05618168334513E-03
      8.07721657569507E-04   2.86390334091464E-03  -6.52496161482377E-27   0.00000000000000E+00   2.86390334091463E-07
      0.00000000000000E+00   0.00000000000000E+00   2.67744084151130E-10  -2.86390360865871E-03  -2.86390334091462E-03
      2.59349466492565E-29
      2.70000000000000E-01
      5.40000000000000E+00   5.39999967597725E+00   0.00000000000000E+00   0.00000000000000E+00   2.41258847759597E-03
      8.27638947492513E-04   3.24022742508848E-03  -1.07054234069925E-27   0.00000000000000E+00   3.24022742508847E-07
      0.00000000000000E+00   0.00000000000000E+00   2.55207309988043E-10  -3.24022768029578E-03  -3.24022742508847E-03
      1.32577898915975E-29
      2.80000000000000E-01
      5.60000000000000E+00   5.59999963474413E+00   0.00000000000000E+00   0.00000000000000E+00   2.80674832929673E-03
      8.45810247916268E-04   3.65255857721300E-03   3.62784420694274E-27   0.00000000000000E+00   3.65255857721298E-07
      0.00000000000000E+00   0.00000000000000E+00   2.42004941871899E-10  -3.65255881921792E-03  -3.65255857721297E-03
     -5.41924258342674E-30
      2.90000000000000E-01
      5.80000000000000E+00   5.79999958980864E+00   0.00000000000000E+00   0.00000000000000E+00   3.23951679255867E-03
      8.62396559941364E-04   4.10191335250003E-03   2.31329079170579E-27   0.00000000000000E+00   4.10191335250002E-07
      0.00000000000000E+00   0.00000000000000E+00   2.28166653861840E-10  -4.10191358066668E-03  -4.10191335250002E-03
     -4.45152069352910E-30
      3.00000000000000E-01
      6.00000000000000E+00   5.99999954109700E+00   0.00000000000000E+00   0.00000000000000E+00   3.71149166896931E-03
      8.77538518484678E-04   4.58903018745399E-03   4.78894112348916E-27   0.00000000000000E+00   4.58903018745399E-07
      0.00000000000000E+00   0.00000000000000E+00   2.13732445744759E-10  -4.58903040118643E-03  -4.58903018745398E-03
      2.12898815777479E-30
      3.10000000000000E-01
      6.20000000000000E+00   6.19999948856369E+00   0.00000000000000E+00   0.00000000000000E+00   4.22300127176390E-03
      8.91362068549002E-04   5.11436334031290E-03  -1.88606577036324E-27   0.00000000000000E+00   5.11436334031289E-07
      0.00000000000000E+00   0.00000000000000E+00   1.98753756562776E-10  -5.11436353906665E-03  -5.11436334031290E-03
      1.87738046640140E-29
      3.20000000000000E-01
      6.40000000000000E+00   6.39999943219274E+00   0.00000000000000E+00   0.00000000000000E+00   4.77409058034884E-03
      9.03982215616480E-04   5.67807279596532E-03   1.95774976935740E-27   0.00000000000000E+00   5.67807279596531E-07
      0.00000000000000E+00   0.00000000000000E+00   1.83288500489677E-10  -5.67807297925382E-03  -5.67807279596532E-03
     -1.68383608842188E-29
      3.30000000000000E-01
      6.60000000000000E+00   6.59999937199830E+00   0.00000000000000E+00   0.00000000000000E+00   5.36451133642596E-03
      9.15505396848970E-04   6.28001673327493E-03  -5.87462831176531E-27   0.00000000000000E+00   6.28001673327494E-07
      0.00000000000000E+00   0.00000000000000E+00   1.67387308711161E-10  -6.28001690066225E-03  -6.28001673327494E-03
     -2.12898815777479E-29
      3.40000000000000E-01
      6.80000000000000E+00   6.79999930802472E+00   0.00000000000000E+00   0.00000000000000E+00   5.99372202096033E-03
      9.26030872728534E-04   6.91975289368886E-03   2.78607132101528E-28   0.00000000000000E+00   6.91975289368884E-07
      0.00000000000000E+00   0.00000000000000E+00   1.51075795938722E-10  -6.91975304476464E-03  -6.91975289368884E-03
      1.44190561594747E-29
      3.50000000000000E-01
      7.00000000000000E+00   6.99999924034463E+00   0.00000000000000E+00   0.00000000000000E+00   6.66090192741652E-03
      9.35651432255956E-04   7.59655335967247E-03   1.02784161230752E-27   0.00000000000000E+00   7.59655335967247E-07
      0.00000000000000E+00   0.00000000000000E+00   1.34401630139867E-10  -7.59655349407409E-03  -7.59655335967246E-03
     -9.67721889897631E-32
      3.60000000000000E-01
      7.20000000000000E+00   7.19999916905664E+00   0.00000000000000E+00   0.00000000000000E+00   7.36498011161485E-03
      9.44453657377534E-04   8.30943376899238E-03   1.09204995970223E-27   0.00000000000000E+00   8.30943376899239E-07
      0.00000000000000E+00   0.00000000000000E+00   1.18144550925534E-10  -8.30943388713693E-03  -8.30943376899238E-03
      1.97415265539117E-29
      3.70000000000000E-01
      7.40000000000000E+00   7.39999909428038E+00   0.00000000000000E+00   0.00000000000000E+00   8.10467794181448E-03
      9.52517926177380E-04   9.05719586799186E-03   5.12353096692127E-27   0.00000000000000E+00   9.05719586799186E-07
      0.00000000000000E+00   0.00000000000000E+00   1.26373361627850E-09  -9.05719713172548E-03  -9.05719586799187E-03
     -2.41930472474408E-30
      3.80000000000000E-01
      7.60000000000000E+00   7.59999901615211E+00   0.00000000000000E+00   0.00000000000000E+00   8.87856104368979E-03
      9.59918307779125E-04   9.83847935146892E-03  -1.93677439739387E-27   0.00000000000000E+00   9.83847935146888E-07
      0.00000000000000E+00   0.00000000000000E+00   1.86911927877210E-07  -9.83866626339676E-03  -9.83847935146888E-03
     -2.03221596878503E-29
      3.90000000000000E-01
      7.80000000000000E+00   7.79999893481837E+00   0.00000000000000E+00   0.00000000000000E+00   9.68509353385896E-03
      9.66722448935301E-04   1.06518159827943E-02   4.29600778582255E-27   0.00000000000000E+00   1.06518159827942E-06
      0.00000000000000E+00   0.00000000000000E+00   2.54328562982849E-06  -1.06543592684241E-02  -1.06518159827942E-02
     -4.83860944948816E-31
      4.00000000000000E-01
      8.00000000000000E+00   7.99999885043173E+00   0.00000000000000E+00   0.00000000000000E+00   1.05226914410376E-02
      9.72991565350772E-04   1.14956830063884E-02  -2.36172527229517E-27   0.00000000000000E+00   1.14956830063883E-06
      0.00000000000000E+00   0.00000000000000E+00   1.27109645479920E-05  -1.15083939709363E-02  -1.14956830063883E-02
      2.60317188382463E-29
      4.10000000000000E-01
      8.20000000000000E+00   8.19999876314427E+00   0.00000000000000E+00   0.00000000000000E+00   1.13897772446967E-02
      9.78780589209654E-04   1.23685578339064E-02   4.94048637144713E-27   0.00000000000000E+00   1.23685578339064E-06
      0.00000000000000E+00   0.00000000000000E+00   3.83816690129110E-05  -1.24069395029193E-02  -1.23685578339064E-02
     -6.09664790635508E-30
      4.20000000000000E-01
      8.40000000000000E+00   8.39999867310347E+00   0.00000000000000E+00   0.00000000000000E+00   1.22848272687628E-02
      9.84138415819690E-04   1.32689656845825E-02   7.39707258199951E-27   0.00000000000000E+00   1.32689656845825E-06
      0.00000000000000E+00   0.00000000000000E+00   8.68506726979061E-05  -1.33558163572804E-02  -1.32689656845825E-02
      1.46126005374542E-29
      4.30000000000000E-01
      8.60000000000000E+00   8.59999858044855E+00   0.00000000000000E+00   0.00000000000000E+00   1.32064062373002E-02
      9.89108235104569E-04   1.41955144724047E-02   5.40313001395994E-27   0.00000000000000E+00   1.41955144724047E-06
      0.00000000000000E+00   0.00000000000000E+00   1.64071948721486E-04  -1.43595864211262E-02  -1.41955144724047E-02
     -4.35474850453934E-30
      4.40000000000000E-01
      8.80000000000000E+00   8.79999848530804E+00   0.00000000000000E+00   0.00000000000000E+00   1.41531913147827E-02
      9.93727938328044E-04   1.51469192531107E-02   2.99260736536668E-27   0.00000000000000E+00   1.51469192531107E-06
      0.00000000000000E+00   0.00000000000000E+00   2.74749402480738E-04  -1.54216686555915E-02  -1.51469192531107E-02
     -1.93544377979526E-31
      4.50000000000000E-01
      9.00000000000001E+00   8.99999838779956E+00   0.00000000000000E+00   0.00000000000000E+00   1.51239764707705E-02
      9.98028508158152E-04   1.61220049789287E-02  -5.97531977440916E-27   0.00000000000000E+00   1.61220049789286E-06
      0.00000000000000E+00   0.00000000000000E+00   4.22715005444409E-04  -1.65447199843730E-02  -1.61220049789286E-02
     -1.16126626787716E-30
      4.60000000000000E-01
      9.20000000000000E+00   9.19999828802507E+00   0.00000000000000E+00   0.00000000000000E+00   1.61177063218769E-02
      1.00204292704237E-03   1.71197492489192E-02   2.87969841386288E-27   0.00000000000000E+00   1.71197492489192E-06
      0.00000000000000E+00   0.00000000000000E+00   6.11267784715246E-04  -1.77310170336345E-02  -1.71197492489192E-02
      1.07417129778637E-29
      4.70000000000000E-01
      9.40000000000001E+00   9.39999818607879E+00   0.00000000000000E+00   0.00000000000000E+00   1.71334172995056E-02
      1.00579440267702E-03   1.81392117021826E-02  -7.96766560133041E-27   0.00000000000000E+00   1.81392117021826E-06
      0.00000000000000E+00   0.00000000000000E+00   8.43417673015640E-04  -1.89826293751982E-02  -1.81392117021826E-02
      1.31610177026078E-29
      4.80000000000000E-01
      9.60000000000000E+00   9.59999808204465E+00   0.00000000000000E+00   0.00000000000000E+00   1.81702482035005E-02
      1.00930519649093E-03   1.91795533999914E-02  -5.93448191065548E-27   0.00000000000000E+00   1.91795533999914E-06
      0.00000000000000E+00   0.00000000000000E+00   1.12203872226686E-03  -2.03015921222583E-02  -1.91795533999914E-02
     -5.41924258342674E-30
      4.90000000000000E-01
      9.80000000000001E+00   9.79999797600026E+00   0.00000000000000E+00   0.00000000000000E+00   1.92274024784725E-02
      1.01259525447079E-03   2.02399977329433E-02  -6.74906181147681E-27   0.00000000000000E+00   2.02399977329433E-06
      0.00000000000000E+00   0.00000000000000E+00   1.45000091729424E-03  -2.16899986502376E-02  -2.02399977329434E-02
     -6.77405322928342E-31
      5.00000000000000E-01
      1.00000000000000E+01   9.99999786801921E+00   0.00000000000000E+00   0.00000000000000E+00   2.03041222299221E-02
      1.01568515925018E-03   2.13198073891723E-02  -4.97692110060178E-27   0.00000000000000E+00   2.13198073891723E-06
      0.00000000000000E+00   0.00000000000000E+00   1.83032909063862E-03  -2.31501364798109E-02  -2.13198073891722E-02
     -2.08060206327991E-29
      5.10000000000000E-01
      1.02000000000000E+01   1.01999977581791E+01   0.00000000000000E+00   0.00000000000000E+00   2.13996225528028E-02
      1.01858721035506E-03   2.24182097631579E-02  -1.77833413097038E-27   0.00000000000000E+00   2.24182097631577E-06
      0.00000000000000E+00   0.00000000000000E+00   2.26640442700455E-03  -2.46846141901623E-02  -2.24182097631578E-02
     -1.48061449154338E-29
      5.20000000000000E-01
      1.04000000000000E+01   1.03999976465564E+01   0.00000000000000E+00   0.00000000000000E+00   2.25131159910331E-02
      1.02131984950514E-03   2.35344358405383E-02   5.66247948045251E-27   0.00000000000000E+00   2.35344358405382E-06
      0.00000000000000E+00   0.00000000000000E+00   2.76197299811942E-03  -2.62964088386577E-02  -2.35344358405383E-02
     -2.80639348070313E-30
      5.30000000000000E-01
      1.06000000000000E+01   1.05999975332337E+01   0.00000000000000E+00   0.00000000000000E+00   2.36437652116295E-02
      1.02389846456262E-03   2.46676636761921E-02  -1.95153215621481E-27   0.00000000000000E+00   2.46676636761921E-06
      0.00000000000000E+00   0.00000000000000E+00   3.32113673604693E-03  -2.79888004122390E-02  -2.46676636761921E-02
     -1.48061449154338E-29
      5.40000000000000E-01
      1.08000000000000E+01   1.07999974182971E+01   0.00000000000000E+00   0.00000000000000E+00   2.47906905756962E-02
      1.02633777755258E-03   2.58170283532488E-02   1.02893029943366E-26   0.00000000000000E+00   2.58170283532487E-06
      0.00000000000000E+00   0.00000000000000E+00   3.94826079570110E-03  -2.97652891489498E-02  -2.58170283532487E-02
      2.45801360033998E-29
      5.50000000000000E-01
      1.10000000000000E+01   1.09999973018367E+01   0.00000000000000E+00   0.00000000000000E+00   2.59529803518532E-02
      1.02865176052139E-03   2.69816321123746E-02   1.50166244264865E-28   0.00000000000000E+00   2.69816321123746E-06
      0.00000000000000E+00   0.00000000000000E+00   4.64791159365971E-03  -3.16295437060343E-02  -2.69816321123746E-02
      1.93544377979526E-31
      5.60000000000000E-01
      1.12000000000000E+01   1.11999971839438E+01   0.00000000000000E+00   0.00000000000000E+00   2.71297082660201E-02
      1.03085351858561E-03   2.81605617846057E-02  -8.59682998804735E-27   0.00000000000000E+00   2.81605617846056E-06
      0.00000000000000E+00   0.00000000000000E+00   5.42482615514011E-03  -3.35853879397457E-02  -2.81605617846056E-02
      1.88705768530038E-30
      5.70000000000000E-01
      1.14000000000000E+01   1.13999970647091E+01   0.00000000000000E+00   0.00000000000000E+00   2.83199538341567E-02
      1.03295517218502E-03   2.93529090063417E-02  -2.95118886847906E-27   0.00000000000000E+00   2.93529090063417E-06
      0.00000000000000E+00   0.00000000000000E+00   6.28388767944629E-03  -3.56367966857881E-02  -2.93529090063418E-02
     -2.17737425226967E-30
      5.80000000000000E-01
      1.16000000000000E+01   1.15999969442211E+01   0.00000000000000E+00   0.00000000000000E+00   2.95228216818338E-02
      1.03496777391233E-03   3.05577894557461E-02   5.01125103464589E-27   0.00000000000000E+00   3.05577894557460E-06
      0.00000000000000E+00   0.00000000000000E+00   7.23009687542755E-03  -3.77878863311735E-02  -3.05577894557460E-02
      1.19513653402357E-29
      5.90000000000000E-01
      1.18000000000000E+01   1.17999968225641E+01   0.00000000000000E+00   0.00000000000000E+00   3.07374574433822E-02
      1.03690127390613E-03   3.17743587172883E-02   3.21332053540508E-27   0.00000000000000E+00   3.17743587172885E-06
      0.00000000000000E+00   0.00000000000000E+00   8.26855072292050E-03  -4.00429094402089E-02  -3.17743587172884E-02
     -8.90304138705821E-30
      6.00000000000000E-01
      1.20000000000000E+01   1.19999966998176E+01   0.00000000000000E+00   0.00000000000000E+00   3.19630592549304E-02
      1.03876453282128E-03   3.30018237877516E-02   4.53063195802824E-27   0.00000000000000E+00   3.30018237877515E-06
      0.00000000000000E+00   0.00000000000000E+00   9.40443981148631E-03  -4.24062635992377E-02  -3.30018237877514E-02
     -5.32247039443697E-30
      6.10000000000000E-01
      1.22000000000000E+01   1.21999965760549E+01   0.00000000000000E+00   0.00000000000000E+00   3.31988849141538E-02
      1.04056537279301E-03   3.42394502869468E-02   5.04304069872903E-27   0.00000000000000E+00   3.42394502869469E-06
      0.00000000000000E+00   0.00000000000000E+00   1.06430602388788E-02  -4.48825105258256E-02  -3.42394502869468E-02
     -2.27898505070892E-29
      6.20000000000000E-01
      1.24000000000000E+01   1.23999964513434E+01   0.00000000000000E+00   0.00000000000000E+00   3.44442553832539E-02
      1.04231065388298E-03   3.54865660371369E-02  -1.73831883082312E-27   0.00000000000000E+00   3.54865660371368E-06
      0.00000000000000E+00   0.00000000000000E+00   1.19898301437203E-02  -4.74763961808570E-02  -3.54865660371368E-02
      2.41930472474408E-31
      6.30000000000000E-01
      1.26000000000000E+01   1.25999963257438E+01   0.00000000000000E+00   0.00000000000000E+00   3.56985555171755E-02
      1.04400636426862E-03   3.67425618814442E-02  -3.01070376470777E-27   0.00000000000000E+00   3.67425618814439E-06
      0.00000000000000E+00   0.00000000000000E+00   1.34503074013319E-02  -5.01928692827758E-02  -3.67425618814439E-02
     -6.09664790635508E-30
      6.40000000000000E-01
      1.28000000000000E+01   1.27999961993109E+01   0.00000000000000E+00   0.00000000000000E+00   3.69612328566167E-02
      1.04565771494451E-03   3.80068905715612E-02  -3.22914278830491E-27   0.00000000000000E+00   3.80068905715611E-06
      0.00000000000000E+00   0.00000000000000E+00   1.50302107995433E-02  -5.30371013711043E-02  -3.80068905715610E-02
      5.27408429994209E-30
      6.50000000000000E-01
      1.30000000000000E+01   1.29999960720936E+01   0.00000000000000E+00   0.00000000000000E+00   3.82317951851034E-02
      1.04726923255115E-03   3.92790644176545E-02  -1.27569938135755E-27   0.00000000000000E+00   3.92790644176545E-06
      0.00000000000000E+00   0.00000000000000E+00   1.67354456952278E-02  -5.60145101128823E-02  -3.92790644176545E-02
     -1.30642455136180E-30
      6.60000000000000E-01
      1.32000000000000E+01   1.31999959441348E+01   0.00000000000000E+00   0.00000000000000E+00   3.95098073880175E-02
      1.04884484641525E-03   4.05586522344327E-02  -1.64217566106179E-27   0.00000000000000E+00   4.05586522344327E-06
      0.00000000000000E+00   0.00000000000000E+00   1.85721323152925E-02  -5.91307845497252E-02  -4.05586522344327E-02
      5.56440086691138E-30
      6.70000000000000E-01
      1.34000000000000E+01   1.33999958154724E+01   0.00000000000000E+00   0.00000000000000E+00   4.07948880073695E-02
      1.05038796770983E-03   4.18452759750793E-02  -4.47968140052513E-27   0.00000000000000E+00   4.18452759750795E-06
      0.00000000000000E+00   0.00000000000000E+00   2.05466354230097E-02  -6.23919113980891E-02  -4.18452759750794E-02
     -3.19348223666218E-30
      6.80000000000000E-01
      1.36000000000000E+01   1.35999956861393E+01   0.00000000000000E+00   0.00000000000000E+00   4.20867058019236E-02
      1.05190155973760E-03   4.31386073616612E-02  -1.88971892049760E-27   0.00000000000000E+00   4.31386073616611E-06
      0.00000000000000E+00   0.00000000000000E+00   2.26655960562942E-02  -6.58042034179553E-02  -4.31386073616611E-02
     -1.19997514347306E-29
      6.90000000000000E-01
      1.38000000000000E+01   1.37999955561635E+01   0.00000000000000E+00   0.00000000000000E+00   4.33849766359897E-02
      1.05338819868808E-03   4.44383648346778E-02   1.90762177546071E-28   0.00000000000000E+00   4.44383648346777E-06
      0.00000000000000E+00   0.00000000000000E+00   2.49359664243774E-02  -6.93743312590551E-02  -4.44383648346777E-02
      1.17578209622562E-29
      7.00000000000000E-01
      1.40000000000000E+01   1.39999954255688E+01   0.00000000000000E+00   0.00000000000000E+00   4.46894610047144E-02
      1.05485012440849E-03   4.57443111291229E-02  -2.15013288106905E-27   0.00000000000000E+00   4.57443111291231E-06
      0.00000000000000E+00   0.00000000000000E+00   2.73650483180868E-02  -7.31093594472099E-02  -4.57443111291231E-02
     -9.33851623751214E-30
      7.10000000000000E-01
      1.42000000000000E+01   1.41999952943749E+01   0.00000000000000E+00   0.00000000000000E+00   4.59999620162185E-02
      1.05628928271877E-03   4.70562512989373E-02   6.40053677283018E-27   0.00000000000000E+00   4.70562512989374E-06
      0.00000000000000E+00   0.00000000000000E+00   2.99605345325459E-02  -7.70167858314832E-02  -4.70562512989374E-02
      4.59667897701375E-30
      7.20000000000000E-01