DF-ISE text

Info {
  version   = 1.0
  type      = xyplot
  datasets  = [
    "time"
    "ntype OuterVoltage" "ntype InnerVoltage" "ntype QuasiFermiPotential" "ntype DisplacementCurrent" "ntype eCurrent"
    "ntype hCurrent" "ntype TotalCurrent" "ntype Charge" "ptype OuterVoltage" "ptype InnerVoltage"
    "ptype QuasiFermiPotential" "ptype DisplacementCurrent" "ptype eCurrent" "ptype hCurrent" "ptype TotalCurrent"
    "ptype Charge" ]
  functions = [
    Time
    OuterVoltage InnerVoltage QuasiFermiPotential DisplacementCurrent eCurrent
    hCurrent TotalCurrent Charge OuterVoltage InnerVoltage
    QuasiFermiPotential DisplacementCurrent eCurrent hCurrent TotalCurrent
    Charge ]
}

Data {
      1.00000000000000E-02
      1.20000000000000E-02   1.19999999978722E-02   0.00000000000000E+00   0.00000000000000E+00   3.62279134543665E-08
     -1.49497458831491E-08   2.12781675712174E-08   1.24817790003177E-28   0.00000000000000E+00   2.12781675703472E-12
      0.00000000000000E+00   0.00000000000000E+00   2.39118090984944E-09  -2.36693484801948E-08  -2.12781675703454E-08
      1.43222839704849E-29
      2.00000000000000E-02
      2.40000000000000E-02   2.39999999978001E-02   0.00000000000000E+00   0.00000000000000E+00   3.68585946151428E-08
     -1.48585095727912E-08   2.20000850423516E-08  -1.74302778066001E-28   0.00000000000000E+00   2.20000850425742E-12
      0.00000000000000E+00   0.00000000000000E+00   2.39106054553508E-09  -2.43911455881027E-08  -2.20000850425676E-08
      2.02253874988605E-29
      3.00000000000000E-02
      3.60000000000000E-02   3.59999999977398E-02   0.00000000000000E+00   0.00000000000000E+00   3.73748182670177E-08
     -1.47750839446868E-08   2.25997343223308E-08   1.51636538909692E-30   0.00000000000000E+00   2.25997343226264E-12
      0.00000000000000E+00   0.00000000000000E+00   2.39094971592241E-09  -2.49906840385554E-08  -2.25997343226330E-08
      1.93544377979526E-29
      4.00000000000000E-02
      4.80000000000000E-02   4.79999999976898E-02   0.00000000000000E+00   0.00000000000000E+00   3.78011758005134E-08
     -1.46975069170426E-08   2.31036688834708E-08   7.88385256930528E-29   0.00000000000000E+00   2.31036688835096E-12
      0.00000000000000E+00   0.00000000000000E+00   2.39084577074953E-09  -2.54945146542539E-08  -2.31036688835043E-08
      2.48704525703691E-29
      5.00000000000000E-02
      6.00000000000000E-02   5.99999999976469E-02   0.00000000000000E+00   0.00000000000000E+00   3.81577093986180E-08
     -1.46242860704237E-08   2.35334233281943E-08  -2.65449138529826E-28   0.00000000000000E+00   2.35334233283140E-12
      0.00000000000000E+00   0.00000000000000E+00   2.39074697073085E-09  -2.59241702990305E-08  -2.35334233282996E-08
      2.41930472474408E-30
      6.00000000000000E-02
      7.20000000000000E-02   7.19999999976095E-02   0.00000000000000E+00   0.00000000000000E+00   3.84605115517989E-08
     -1.45542876860535E-08   2.39062238657454E-08  -2.86277320371920E-28   0.00000000000000E+00   2.39062238658008E-12
      0.00000000000000E+00   0.00000000000000E+00   2.39065217973818E-09  -2.62968760455379E-08  -2.39062238657997E-08
      3.38702661464171E-29
      7.00000000000000E-02
      8.40000000000000E-02   8.39999999975760E-02   0.00000000000000E+00   0.00000000000000E+00   3.87223269215332E-08
     -1.44866514772672E-08   2.42356754442661E-08  -1.81495106401211E-30   0.00000000000000E+00   2.42356754443518E-12
      0.00000000000000E+00   0.00000000000000E+00   2.39056065533958E-09  -2.66262360996839E-08  -2.42356754443444E-08
      6.48373666231413E-30
      8.00000000000000E-02
      9.60000000000000E-02   9.59999999975465E-02   0.00000000000000E+00   0.00000000000000E+00   3.89531148055147E-08
     -1.44207259455129E-08   2.45323888600017E-08   8.35831508242301E-29   0.00000000000000E+00   2.45323888596589E-12
      0.00000000000000E+00   0.00000000000000E+00   2.39047190929968E-09  -2.69228607689634E-08  -2.45323888596637E-08
     -1.96447543649219E-29
      9.00000000000000E-02
      1.08000000000000E-01   1.07999999997519E-01   0.00000000000000E+00   0.00000000000000E+00   3.91605555049036E-08
     -1.43560190919142E-08   2.48045364129894E-08   1.69836514734306E-28   0.00000000000000E+00   2.48045364131097E-12
      0.00000000000000E+00   0.00000000000000E+00   2.39038561620994E-09  -2.71949220293198E-08  -2.48045364131099E-08
      1.60641833723007E-29
      1.00000000000000E-01
      1.20000000000000E-01   1.19999999997494E-01   0.00000000000000E+00   0.00000000000000E+00   3.93504951832363E-08
     -1.42921606076262E-08   2.50583345756101E-08  -1.57037683959728E-28   0.00000000000000E+00   2.50583345757770E-12
      0.00000000000000E+00   0.00000000000000E+00   2.39030155442396E-09  -2.74486361302004E-08  -2.50583345757764E-08
      1.89673490419936E-29
      1.10000000000000E-01
      1.32000000000000E-01   1.31999999997471E-01   0.00000000000000E+00   0.00000000000000E+00   3.95273287325957E-08
     -1.42288727620088E-08   2.52984559705869E-08   1.53123088258138E-28   0.00000000000000E+00   2.52984559705879E-12
      0.00000000000000E+00   0.00000000000000E+00   2.39021956827317E-09  -2.76886755388737E-08  -2.52984559706006E-08
     -9.67721889897631E-31
      1.20000000000000E-01
      1.44000000000000E-01   1.43999999997448E-01   0.00000000000000E+00   0.00000000000000E+00   3.96943225204315E-08
     -1.41659479679257E-08   2.55283745525058E-08   3.97573795826275E-28   0.00000000000000E+00   2.55283745522862E-12
      0.00000000000000E+00   0.00000000000000E+00   2.39013954409343E-09  -2.79185140963862E-08  -2.55283745522928E-08
      6.58050885130389E-30
      1.30000000000000E-01
      1.56000000000000E-01   1.55999999997425E-01   0.00000000000000E+00   0.00000000000000E+00   3.98538805187968E-08
     -1.41032315715424E-08   2.57506489472543E-08  -2.47179985710739E-28   0.00000000000000E+00   2.57506489471946E-12
      0.00000000000000E+00   0.00000000000000E+00   2.39006139510481E-09  -2.81407103422986E-08  -2.57506489471938E-08
     -2.03221596878503E-29
      1.40000000000000E-01
      1.68000000000000E-01   1.67999999997402E-01   0.00000000000000E+00   0.00000000000000E+00   4.00077587584065E-08
     -1.40406087594125E-08   2.59671499989940E-08   4.84053355277705E-28   0.00000000000000E+00   2.59671499987644E-12
      0.00000000000000E+00   0.00000000000000E+00   2.38998505190712E-09  -2.83571350506652E-08  -2.59671499987581E-08
      3.38702661464171E-30
      1.50000000000000E-01
      1.80000000000000E-01   1.79999999997383E-01   0.00000000000000E+00   0.00000000000000E+00   4.01572342146275E-08
     -1.39779947159723E-08   2.61792394986551E-08   4.92908010570269E-28   0.00000000000000E+00   2.61792394990288E-12
      0.00000000000000E+00   0.00000000000000E+00   2.38991045650647E-09  -2.85691499555310E-08  -2.61792394990245E-08
     -1.92576656089629E-29
      1.60000000000000E-01
      1.92000000000000E-01   1.91999999997362E-01   0.00000000000000E+00   0.00000000000000E+00   4.03032349087216E-08
     -1.39153273053015E-08   2.63879076034201E-08  -5.19619875350077E-28   0.00000000000000E+00   2.63879076034761E-12
      0.00000000000000E+00   0.00000000000000E+00   2.38983755854483E-09  -2.87777451620181E-08  -2.63879076034732E-08
     -6.48373666231413E-30
      1.70000000000000E-01
      2.04000000000000E-01   2.03999999997340E-01   0.00000000000000E+00   0.00000000000000E+00   4.04464381025333E-08
     -1.38525617020674E-08   2.65938764004660E-08  -2.42382769053026E-28   0.00000000000000E+00   2.65938764003524E-12
      0.00000000000000E+00   0.00000000000000E+00   2.38976631289634E-09  -2.89836427132504E-08  -2.65938764003540E-08
      7.64500293019129E-30
      1.80000000000000E-01
      2.16000000000000E-01   2.15999999997320E-01   0.00000000000000E+00   0.00000000000000E+00   4.05873430466063E-08
     -1.37896664623461E-08   2.67976765842603E-08  -4.38825020473160E-29   0.00000000000000E+00   2.67976765841689E-12
      0.00000000000000E+00   0.00000000000000E+00   2.38969667810756E-09  -2.91873732622709E-08  -2.67976765841634E-08
     -9.38690233200702E-30
      1.90000000000000E-01
      2.28000000000000E-01   2.27999999997300E-01   0.00000000000000E+00   0.00000000000000E+00   4.07263239732456E-08
     -1.37266206499569E-08   2.69997033232887E-08  -2.59327730551679E-28   0.00000000000000E+00   2.69997033235852E-12
      0.00000000000000E+00   0.00000000000000E+00   2.38962861535815E-09  -2.93893319389489E-08  -2.69997033235908E-08
      1.18062070567511E-29
      2.00000000000000E-01
      2.40000000000000E-01   2.39999999997281E-01   0.00000000000000E+00   0.00000000000000E+00   4.08636680896636E-08
     -1.36634116932928E-08   2.72002563963708E-08  -2.71595590092038E-28   0.00000000000000E+00   2.72002563967289E-12
      0.00000000000000E+00   0.00000000000000E+00   2.38956208774315E-09  -2.95898184844753E-08  -2.72002563967322E-08
      1.45158283484645E-30
      2.10000000000000E-01
      2.52000000000000E-01   2.51999999997259E-01   0.00000000000000E+00   0.00000000000000E+00   4.09996023733392E-08
     -1.36000337297063E-08   2.73995686436329E-08   8.25230511855654E-29   0.00000000000000E+00   2.73995686434754E-12
      0.00000000000000E+00   0.00000000000000E+00   2.38949705975588E-09  -2.97890657032324E-08  -2.73995686434765E-08
      1.45158283484645E-30
      2.20000000000000E-01
      2.64000000000000E-01   2.63999999997239E-01   0.00000000000000E+00   0.00000000000000E+00   4.11343121042515E-08
     -1.35364862462796E-08   2.75978258579719E-08   1.24914845704439E-28   0.00000000000000E+00   2.75978258577864E-12
      0.00000000000000E+00   0.00000000000000E+00   2.38943349689878E-09  -2.99872593546828E-08  -2.75978258577841E-08
     -3.58057099262124E-30
      2.30000000000000E-01
      2.76000000000000E-01   2.75999999997223E-01   0.00000000000000E+00   0.00000000000000E+00   4.12679533470130E-08
     -1.34727728742503E-08   2.77951804727627E-08  -3.33482728008263E-28   0.00000000000000E+00   2.77951804729210E-12
      0.00000000000000E+00   0.00000000000000E+00   2.38937136537926E-09  -3.01845518382914E-08  -2.77951804729122E-08
      1.27739289466487E-29
      2.40000000000000E-01
      2.88000000000000E-01   2.87999999997200E-01   0.00000000000000E+00   0.00000000000000E+00   4.14006610480328E-08
     -1.34089002422574E-08   2.79917608057754E-08  -2.08108592422486E-28   0.00000000000000E+00   2.79917608056255E-12
      0.00000000000000E+00   0.00000000000000E+00   2.38931063186616E-09  -3.03810714374947E-08  -2.79917608056286E-08
     -1.42255117814952E-29
      2.50000000000000E-01
      3.00000000000000E-01   2.99999999997180E-01   0.00000000000000E+00   0.00000000000000E+00   4.15325540411111E-08
     -1.33448768158138E-08   2.81876772252974E-08  -4.87248916604366E-28   0.00000000000000E+00   2.81876772250858E-12
      0.00000000000000E+00   0.00000000000000E+00   2.38925126329358E-09  -3.05769284883682E-08  -2.81876772250746E-08
     -1.64512721282597E-29
      2.60000000000000E-01
      3.12000000000000E-01   3.11999999997163E-01   0.00000000000000E+00   0.00000000000000E+00   4.16637380376651E-08
     -1.32807116649610E-08   2.83830263727042E-08   1.18911284327533E-28   0.00000000000000E+00   2.83830263724391E-12
      0.00000000000000E+00   0.00000000000000E+00   2.38919322670590E-09  -3.07722195991448E-08  -2.83830263724389E-08
      2.68058963501644E-29
      2.70000000000000E-01
      3.24000000000000E-01   3.23999999997143E-01   0.00000000000000E+00   0.00000000000000E+00   4.17943075438339E-08
     -1.32164131367844E-08   2.85778944070495E-08  -6.70705171898072E-28   0.00000000000000E+00   2.85778944069851E-12
      0.00000000000000E+00   0.00000000000000E+00   2.38913648914135E-09  -3.09670308961385E-08  -2.85778944069972E-08
     -1.39351952145259E-29
      2.80000000000000E-01
      3.36000000000000E-01   3.35999999997122E-01   0.00000000000000E+00   0.00000000000000E+00   4.19243474843131E-08
     -1.31519874099155E-08   2.87723600743975E-08  -2.97462966316365E-29   0.00000000000000E+00   2.87723600741792E-12
      0.00000000000000E+00   0.00000000000000E+00   2.38908101755379E-09  -3.11614410917361E-08  -2.87723600741823E-08
     -1.03546242219047E-29
      2.90000000000000E-01
      3.48000000000000E-01   3.47999999997106E-01   0.00000000000000E+00   0.00000000000000E+00   4.20539349829608E-08
     -1.30874369440848E-08   2.89664980388760E-08  -1.36951926255040E-28   0.00000000000000E+00   2.89664980387979E-12
      0.00000000000000E+00   0.00000000000000E+00   2.38902677877173E-09  -3.13555248175598E-08  -2.89664980387880E-08
      2.43865916254203E-29
      3.00000000000000E-01
      3.60000000000000E-01   3.59999999997085E-01   0.00000000000000E+00   0.00000000000000E+00   4.21831412811258E-08
     -1.30227588867861E-08   2.91603823943397E-08   1.11215400394849E-27   0.00000000000000E+00   2.91603823943418E-12
      0.00000000000000E+00   0.00000000000000E+00   2.38897373949325E-09  -3.15493561338405E-08  -2.91603823943473E-08
      1.54835502383621E-29
      3.10000000000000E-01
      3.72000000000000E-01   3.71999999997063E-01   0.00000000000000E+00   0.00000000000000E+00   4.23120327692288E-08
     -1.29579433768586E-08   2.93540893923701E-08  -1.15890328759054E-27   0.00000000000000E+00   2.93540893924092E-12
      0.00000000000000E+00   0.00000000000000E+00   2.38892186631225E-09  -3.17430112587136E-08  -2.93540893924014E-08
      1.57738668053314E-29
      3.20000000000000E-01
      3.84000000000000E-01   3.83999999997048E-01   0.00000000000000E+00   0.00000000000000E+00   4.24406704636429E-08
     -1.28929719662090E-08   2.95476984974338E-08   3.85445518828043E-28   0.00000000000000E+00   2.95476984974997E-12
      0.00000000000000E+00   0.00000000000000E+00   2.38887112577235E-09  -3.19365696232664E-08  -2.95476984974940E-08
     -2.90316566969289E-31
      3.30000000000000E-01
      3.96000000000000E-01   3.95999999997026E-01   0.00000000000000E+00   0.00000000000000E+00   4.25691076250710E-08
     -1.28278163126952E-08   2.97412913123758E-08  -2.95767184910865E-28   0.00000000000000E+00   2.97412913122795E-12
      0.00000000000000E+00   0.00000000000000E+00   2.38882148444450E-09  -3.21301127967275E-08  -2.97412913122830E-08
      7.83854730817081E-30
      3.40000000000000E-01
      4.08000000000000E-01   4.07999999997005E-01   0.00000000000000E+00   0.00000000000000E+00   4.26973852084579E-08
     -1.27624367941910E-08   2.99349484142669E-08   6.12956368118431E-28   0.00000000000000E+00   2.99349484143602E-12
      0.00000000000000E+00   0.00000000000000E+00   2.38877290902344E-09  -3.23237213233882E-08  -2.99349484143648E-08
      3.87088755959053E-31
      3.50000000000000E-01
      4.20000000000000E-01   4.19999999996986E-01   0.00000000000000E+00   0.00000000000000E+00   4.28255274068989E-08
     -1.26967812410034E-08   3.01287461658954E-08   6.66027219402962E-28   0.00000000000000E+00   3.01287461658868E-12
      0.00000000000000E+00   0.00000000000000E+00   2.38872536644222E-09  -3.25174715323461E-08  -3.01287461659039E-08
     -2.99993785868266E-30
      3.60000000000000E-01
      4.32000000000000E-01   4.31999999996968E-01   0.00000000000000E+00   0.00000000000000E+00   4.29535387486374E-08
     -1.26307836229207E-08   3.03227551257167E-08  -8.94364034447032E-29   0.00000000000000E+00   3.03227551256387E-12
      0.00000000000000E+00   0.00000000000000E+00   2.38867882400111E-09  -3.27114339496469E-08  -3.03227551256458E-08
     -2.32253253575432E-30
      3.70000000000000E-01
      4.44000000000000E-01   4.43999999996947E-01   0.00000000000000E+00   0.00000000000000E+00   4.30814022848689E-08
     -1.25643624264361E-08   3.05170398584328E-08  -1.45801043607882E-27   0.00000000000000E+00   3.05170398583290E-12
      0.00000000000000E+00   0.00000000000000E+00   2.38863324950260E-09  -3.29056731078212E-08  -3.05170398583186E-08
     -2.02253874988605E-29
      3.80000000000000E-01
      4.56000000000000E-01   4.55999999996929E-01   0.00000000000000E+00   0.00000000000000E+00   4.32090785055745E-08
     -1.24974193592166E-08   3.07116591463579E-08  -1.79198354581430E-27   0.00000000000000E+00   3.07116591464172E-12
      0.00000000000000E+00   0.00000000000000E+00   2.38858861138556E-09  -3.31002477578027E-08  -3.07116591464172E-08
     -2.22576034676455E-29
      3.90000000000000E-01
      4.68000000000000E-01   4.67999999996908E-01   0.00000000000000E+00   0.00000000000000E+00   4.33365005088489E-08
     -1.24298378227944E-08   3.09066626860544E-08   5.34678440692065E-28   0.00000000000000E+00   3.09066626861588E-12
      0.00000000000000E+00   0.00000000000000E+00   2.38854487884423E-09  -3.32952075650076E-08  -3.09066626861634E-08
      1.95479821759322E-29
      4.00000000000000E-01
      4.80000000000000E-01   4.79999999996890E-01   0.00000000000000E+00   0.00000000000000E+00   4.34635658545249E-08
     -1.23614814132738E-08   3.11020844412511E-08  -2.23165891409657E-27   0.00000000000000E+00   3.11020844413512E-12
      0.00000000000000E+00   0.00000000000000E+00   2.38850202192972E-09  -3.34905864632775E-08  -3.11020844413478E-08
      2.01286153098707E-29
      4.10000000000000E-01
      4.92000000000000E-01   4.91999999996871E-01   0.00000000000000E+00   0.00000000000000E+00   4.35901301699797E-08
     -1.22921922283622E-08   3.12979379416175E-08   2.16384126646563E-28   0.00000000000000E+00   3.12979379416199E-12
      0.00000000000000E+00   0.00000000000000E+00   2.38846001163900E-09  -3.36863979532538E-08  -3.12979379416148E-08
     -1.43222839704849E-29
      4.20000000000000E-01
      5.04000000000000E-01   5.03999999996850E-01   0.00000000000000E+00   0.00000000000000E+00   4.37160114785949E-08
     -1.22217877881391E-08   3.14942236904558E-08  -8.91177356504908E-29   0.00000000000000E+00   3.14942236903596E-12
      0.00000000000000E+00   0.00000000000000E+00   2.38841882000261E-09  -3.38826425103520E-08  -3.14942236903494E-08
     -3.77411537060076E-30
      4.30000000000000E-01
      5.16000000000000E-01   5.15999999996832E-01   0.00000000000000E+00   0.00000000000000E+00   4.38410168244126E-08
     -1.21500567457445E-08   3.16909600786681E-08   5.17377765795602E-28   0.00000000000000E+00   3.16909600787490E-12
      0.00000000000000E+00   0.00000000000000E+00   2.38837842018457E-09  -3.40793384989341E-08  -3.16909600787495E-08
     -1.52900058603826E-29
      4.40000000000000E-01
      5.28000000000000E-01   5.27999999996813E-01   0.00000000000000E+00   0.00000000000000E+00   4.39649946150935E-08
     -1.20767534585795E-08   3.18882411565140E-08   7.50797955884359E-28   0.00000000000000E+00   3.18882411563729E-12
      0.00000000000000E+00   0.00000000000000E+00   2.38833878659372E-09  -3.42765799429734E-08  -3.18882411563796E-08
      2.80639348070313E-29
      4.50000000000000E-01
      5.40000000000000E-01   5.39999999996788E-01   0.00000000000000E+00   0.00000000000000E+00   4.40879001498827E-08
     -1.20015905154901E-08   3.20863096343926E-08   1.06544857020458E-27   0.00000000000000E+00   3.20863096343784E-12
      0.00000000000000E+00   0.00000000000000E+00   2.38829989498257E-09  -3.44746095293481E-08  -3.20863096343655E-08
     -4.54829288251887E-30
      4.60000000000000E-01
      5.52000000000000E-01   5.51999999996774E-01   0.00000000000000E+00   0.00000000000000E+00   4.42098539532023E-08
     -1.19242311256347E-08   3.22856228275676E-08  -1.97718396860800E-27   0.00000000000000E+00   3.22856228275766E-12
      0.00000000000000E+00   0.00000000000000E+00   2.38826172250398E-09  -3.46738845500762E-08  -3.22856228275723E-08
     -5.41924258342674E-30
      4.70000000000000E-01
      5.64000000000000E-01   5.63999999996747E-01   0.00000000000000E+00   0.00000000000000E+00   4.43311662861659E-08
     -1.18442822369192E-08   3.24868840492467E-08   1.57044441002221E-27   0.00000000000000E+00   3.24868840491762E-12
      0.00000000000000E+00   0.00000000000000E+00   2.38822424769387E-09  -3.48751082968705E-08  -3.24868840491766E-08
     -9.77399108796608E-30
      4.80000000000000E-01
      5.76000000000000E-01   5.75999999996729E-01   0.00000000000000E+00   0.00000000000000E+00   4.44523083075261E-08
     -1.17612892530969E-08   3.26910190544293E-08   2.27988850981707E-27   0.00000000000000E+00   3.26910190544603E-12
      0.00000000000000E+00   0.00000000000000E+00   2.38818745036481E-09  -3.50792065048319E-08  -3.26910190544671E-08
     -6.09664790635508E-30
      4.90000000000000E-01
      5.88000000000000E-01   5.87999999996712E-01   0.00000000000000E+00   0.00000000000000E+00   4.45738245658389E-08
     -1.16747323854217E-08   3.28990921804172E-08  -1.11030588194860E-28   0.00000000000000E+00   3.28990921803032E-12
      0.00000000000000E+00   0.00000000000000E+00   2.38815131141854E-09  -3.52872434917221E-08  -3.28990921803036E-08
      1.13223461118023E-29
      5.00000000000000E-01
      6.00000000000000E-01   5.99999999996688E-01   0.00000000000000E+00   0.00000000000000E+00   4.46961969450151E-08
     -1.15840230117942E-08   3.31121739332210E-08  -3.89640366410931E-28   0.00000000000000E+00   3.31121739332335E-12
      0.00000000000000E+00   0.00000000000000E+00   2.38811581260518E-09  -3.55002897458410E-08  -3.31121739332358E-08
     -1.27739289466487E-29
      5.10000000000000E-01
      6.12000000000000E-01   6.11999999996670E-01   0.00000000000000E+00   0.00000000000000E+00   4.48196927538350E-08
     -1.14885011372249E-08   3.33311916166101E-08  -2.32434928239605E-27   0.00000000000000E+00   3.33311916166604E-12
      0.00000000000000E+00   0.00000000000000E+00   2.38808093628254E-09  -3.57192725529367E-08  -3.33311916166542E-08
     -4.35474850453934E-30
      5.20000000000000E-01
      6.24000000000000E-01   6.23999999996642E-01   0.00000000000000E+00   0.00000000000000E+00   4.49442289782156E-08
     -1.13874293910047E-08   3.35567995872109E-08  -1.82149566130891E-27   0.00000000000000E+00   3.35567995871335E-12
      0.00000000000000E+00   0.00000000000000E+00   2.38804666521762E-09  -3.59448462523343E-08  -3.35567995871167E-08
      9.58044670998655E-30
      5.30000000000000E-01
      6.36000000000000E-01   6.35999999996623E-01   0.00000000000000E+00   0.00000000000000E+00   4.50692949958565E-08
     -1.12799830313996E-08   3.37893119644569E-08  -1.42168400861224E-27   0.00000000000000E+00   3.37893119644493E-12
      0.00000000000000E+00   0.00000000000000E+00   2.38801298247793E-09  -3.61773249469151E-08  -3.37893119644372E-08
      3.09671004767242E-30
      5.40000000000000E-01
      6.48000000000000E-01   6.47999999996595E-01   0.00000000000000E+00   0.00000000000000E+00   4.51939643188871E-08
     -1.11652346781956E-08   3.40287296406915E-08  -4.85942303044822E-28   0.00000000000000E+00   3.40287296407478E-12
      0.00000000000000E+00   0.00000000000000E+00   2.38797987143680E-09  -3.64167095121681E-08  -3.40287296407313E-08
     -6.48373666231413E-30
      5.50000000000000E-01
      6.60000000000000E-01   6.59999999996577E-01   0.00000000000000E+00   0.00000000000000E+00   4.53170006544249E-08
     -1.10421306366480E-08   3.42748700177769E-08   2.09757348592399E-27   0.00000000000000E+00   3.42748700177379E-12
      0.00000000000000E+00   0.00000000000000E+00   2.38794731588085E-09  -3.66628173336180E-08  -3.42748700177372E-08
     -3.13541892326833E-29
      5.60000000000000E-01
      6.72000000000000E-01   6.71999999996545E-01   0.00000000000000E+00   0.00000000000000E+00   4.54370489518026E-08
     -1.09094655255374E-08   3.45275834262652E-08  -1.53420209119646E-28   0.00000000000000E+00   3.45275834262818E-12
      0.00000000000000E+00   0.00000000000000E+00   2.38791530019428E-09  -3.69154987264834E-08  -3.45275834262891E-08
      3.19348223666218E-30
      5.70000000000000E-01
      6.84000000000000E-01   6.83999999996526E-01   0.00000000000000E+00   0.00000000000000E+00   4.55528586279087E-08
     -1.07658509074297E-08   3.47870077204789E-08   1.88999109227913E-27   0.00000000000000E+00   3.47870077204658E-12
      0.00000000000000E+00   0.00000000000000E+00   2.38788380954758E-09  -3.71748915300274E-08  -3.47870077204798E-08
     -6.96759760726295E-30
      5.80000000000000E-01
      6.96000000000000E-01   6.95999999996497E-01   0.00000000000000E+00   0.00000000000000E+00   4.56634907799347E-08
     -1.06096833848659E-08   3.50538073950688E-08   2.25472396051610E-28   0.00000000000000E+00   3.50538073950780E-12
      0.00000000000000E+00   0.00000000000000E+00   2.38785283003813E-09  -3.74416602251246E-08  -3.50538073950865E-08
      4.52893844472091E-29
      5.90000000000000E-01
      7.08000000000000E-01   7.07999999996464E-01   0.00000000000000E+00   0.00000000000000E+00   4.57684646934515E-08
     -1.04391131768970E-08   3.53293515165545E-08  -3.05440699249482E-27   0.00000000000000E+00   3.53293515165850E-12
      0.00000000000000E+00   0.00000000000000E+00   2.38782234874301E-09  -3.77171738653268E-08  -3.53293515165838E-08
      1.66448165062393E-29
      6.00000000000000E-01
      7.20000000000000E-01   7.19999999996434E-01   0.00000000000000E+00   0.00000000000000E+00   4.58678230126486E-08
     -1.02520136590896E-08   3.56158093535589E-08   6.41407580689603E-28   0.00000000000000E+00   3.56158093535715E-12
      0.00000000000000E+00   0.00000000000000E+00   2.38779235367674E-09  -3.80036017072487E-08  -3.56158093535719E-08
      6.87082541827318E-30
      6.10000000000000E-01
      7.32000000000000E-01   7.31999999996412E-01   0.00000000000000E+00   0.00000000000000E+00   4.59621193526434E-08
     -1.00459511342862E-08   3.59161682183571E-08  -8.15738142958302E-28   0.00000000000000E+00   3.59161682183799E-12
      0.00000000000000E+00   0.00000000000000E+00   2.38776283367283E-09  -3.83039310520390E-08  -3.59161682183662E-08
      2.32253253575432E-30
      6.20000000000000E-01
      7.44000000000000E-01   7.43999999996380E-01   0.00000000000000E+00   0.00000000000000E+00   4.60523473249214E-08
     -9.81815334029275E-09   3.62341939846286E-08  -1.31173946142897E-27   0.00000000000000E+00   3.62341939845851E-12
      0.00000000000000E+00   0.00000000000000E+00   2.38773377821994E-09  -3.86219277628080E-08  -3.62341939845881E-08
     -3.87088755959053E-31
      6.30000000000000E-01
      7.56000000000000E-01   7.55999999996345E-01   0.00000000000000E+00   0.00000000000000E+00   4.61398326583250E-08
     -9.56547503232575E-09   3.65743576259992E-08  -9.62260309481522E-28   0.00000000000000E+00   3.65743576259646E-12
      0.00000000000000E+00   0.00000000000000E+00   2.38770517728066E-09  -3.89620628032392E-08  -3.65743576259585E-08
      7.54823074120153E-30
      6.40000000000000E-01
      7.68000000000000E-01   7.67999999996311E-01   0.00000000000000E+00   0.00000000000000E+00   4.62261044096004E-08
     -9.28435943150355E-09   3.69417449780969E-08  -8.41383529073316E-28   0.00000000000000E+00   3.69417449780636E-12
      0.00000000000000E+00   0.00000000000000E+00   2.38767702111080E-09  -3.93294219991720E-08  -3.69417449780612E-08
      4.83860944948816E-30
      6.50000000000000E-01
      7.80000000000000E-01   7.79999999996270E-01   0.00000000000000E+00   0.00000000000000E+00   4.63127523395452E-08
     -8.97079436883154E-09   3.73419579707137E-08   2.16055857236725E-27   0.00000000000000E+00   3.73419579706637E-12
      0.00000000000000E+00   0.00000000000000E+00   2.38764930008592E-09  -3.97296072707567E-08  -3.73419579706708E-08
     -4.83860944948816E-30
      6.60000000000000E-01
      7.92000000000000E-01   7.91999999996222E-01   0.00000000000000E+00   0.00000000000000E+00   4.64012814570883E-08
     -8.62027164905225E-09   3.77810098080361E-08   1.62633375131107E-27   0.00000000000000E+00   3.77810098080532E-12
      0.00000000000000E+00   0.00000000000000E+00   2.38762200454675E-09  -4.01686318125954E-08  -3.77810098080487E-08
      2.70962129171337E-30
      6.70000000000000E-01
      8.04000000000000E-01   8.03999999996179E-01   0.00000000000000E+00   0.00000000000000E+00   4.64929512357552E-08
     -8.22773093227968E-09   3.82652203034755E-08  -1.87906263921783E-27   0.00000000000000E+00   3.82652203034483E-12
      0.00000000000000E+00   0.00000000000000E+00   2.38759512464598E-09  -4.06528154280933E-08  -3.82652203034473E-08
      6.67728104029366E-30
      6.80000000000000E-01
      8.16000000000000E-01   8.15999999996124E-01   0.00000000000000E+00   0.00000000000000E+00   4.65885336546148E-08
     -7.78742714281278E-09   3.88011065118020E-08  -2.64059323568733E-27   0.00000000000000E+00   3.88011065118516E-12
      0.00000000000000E+00   0.00000000000000E+00   2.38756865012490E-09  -4.11886751619543E-08  -3.88011065118294E-08
     -2.77736182400620E-29
      6.90000000000000E-01
      8.28000000000000E-01   8.27999999996063E-01   0.00000000000000E+00   0.00000000000000E+00   4.66882695154583E-08
     -7.29294214349765E-09   3.93953273719607E-08  -1.94397107291726E-27   0.00000000000000E+00   3.93953273719639E-12
      0.00000000000000E+00   0.00000000000000E+00   2.38754257032144E-09  -4.17828699422859E-08  -3.93953273719644E-08
     -1.45158283484645E-30
      7.00000000000000E-01
      8.40000000000001E-01   8.39999999995994E-01   0.00000000000000E+00   0.00000000000000E+00   4.67917348768168E-08
     -6.73706614042366E-09   4.00546687363931E-08   9.79292970776446E-28   0.00000000000000E+00   4.00546687363987E-12
      0.00000000000000E+00   0.00000000000000E+00   2.38751687407389E-09  -4.24421856104754E-08  -4.00546687364015E-08
      1.11288017338228E-29
      7.10000000000000E-01
      8.52000000000001E-01   8.51999999995922E-01   0.00000000000000E+00   0.00000000000000E+00   4.68978191903786E-08
     -6.11169746116419E-09   4.07861217292145E-08  -1.39868322497446E-27   0.00000000000000E+00   4.07861217292491E-12
      0.00000000000000E+00   0.00000000000000E+00   2.38749154973206E-09  -4.31736132789775E-08  -4.07861217292454E-08
     -3.24186833115706E-29
      7.20000000000000E-01