DF-ISE text

Info {
  version   = 1.0
  type      = xyplot
  datasets  = [
    "time"
    "ntype OuterVoltage" "ntype InnerVoltage" "ntype QuasiFermiPotential" "ntype DisplacementCurrent" "ntype eCurrent"
    "ntype hCurrent" "ntype TotalCurrent" "ntype Charge" "ptype OuterVoltage" "ptype InnerVoltage"
    "ptype QuasiFermiPotential" "ptype DisplacementCurrent" "ptype eCurrent" "ptype hCurrent" "ptype TotalCurrent"
    "ptype Charge" ]
  functions = [
    Time
    OuterVoltage InnerVoltage QuasiFermiPotential DisplacementCurrent eCurrent
    hCurrent TotalCurrent Charge OuterVoltage InnerVoltage
    QuasiFermiPotential DisplacementCurrent eCurrent hCurrent TotalCurrent
    Charge ]
}

Data {
      1.00000000000000E-02
      2.00000000000000E-01   1.99999999998547E-01   0.00000000000000E+00   0.00000000000000E+00   2.12224861592176E-08
     -6.69117933461462E-09   1.45313068246030E-08  -8.88266725012041E-28   0.00000000000000E+00   1.45313068246089E-12
      0.00000000000000E+00   0.00000000000000E+00   1.19485986669162E-09  -1.57261666912989E-08  -1.45313068246073E-08
     -7.45145855221176E-30
      2.00000000000000E-02
      4.00000000000000E-01   3.99999999998280E-01   0.00000000000000E+00   0.00000000000000E+00   2.33032328510765E-08
     -6.08001496833864E-09   1.72232178827378E-08  -5.82132913859738E-28   0.00000000000000E+00   1.72232178827505E-12
      0.00000000000000E+00   0.00000000000000E+00   1.19438267994601E-09  -1.84176005626902E-08  -1.72232178827442E-08
      9.67721889897631E-32
      3.00000000000000E-02
      6.00000000000000E-01   5.99999999998000E-01   0.00000000000000E+00   0.00000000000000E+00   2.52687404978296E-08
     -5.29650773999551E-09   1.99722327578340E-08  -4.67792603396519E-28   0.00000000000000E+00   1.99722327577553E-12
      0.00000000000000E+00   0.00000000000000E+00   1.19404686832482E-09  -2.11662796260953E-08  -1.99722327577705E-08
     -6.87082541827318E-30
      4.00000000000000E-02
      8.00000000000000E-01   7.99999999997556E-01   0.00000000000000E+00   0.00000000000000E+00   2.69168660646156E-08
     -2.52336300807747E-09   2.43935030565382E-08   1.09984843727590E-27   0.00000000000000E+00   2.43935030564754E-12
      0.00000000000000E+00   0.00000000000000E+00   1.19379632278133E-09  -2.55872993792650E-08  -2.43935030564836E-08
      9.19335795402750E-30
      5.00000000000000E-02
      1.00000000000000E+00   9.99999999995404E-01   0.00000000000000E+00   0.00000000000000E+00   2.82848008030554E-08
      1.76402826444825E-08   4.59250834475379E-08   7.39756853946809E-28   0.00000000000000E+00   4.59250834474976E-12
      0.00000000000000E+00   0.00000000000000E+00   1.19360074529284E-09  -4.71186841927819E-08  -4.59250834474891E-08
      2.61284910272360E-30
      6.00000000000000E-02
      1.20000000000000E+00   1.19999999998052E+00   0.00000000000000E+00   0.00000000000000E+00   3.24796127511353E-08
      1.62414119990177E-07   1.94893732741313E-07   1.01638015617405E-28   0.00000000000000E+00   1.94893732741313E-11
      0.00000000000000E+00   0.00000000000000E+00   1.19343344977942E-09  -1.96087166191098E-07  -1.94893732741318E-07
     -1.47093727264440E-29
      7.00000000000000E-02
      1.40000000000000E+00   1.39999999989344E+00   0.00000000000000E+00   0.00000000000000E+00   6.63459622761868E-08
      9.99200364192510E-07   1.06554632646870E-06   2.75955574123209E-27   0.00000000000000E+00   1.06554632646870E-10
      0.00000000000000E+00   0.00000000000000E+00   1.19322370017867E-09  -1.06673955016887E-06  -1.06554632646869E-06
      9.77399108796608E-30
      8.00000000000000E-02
      1.60000000000000E+00   1.59999999950702E+00   0.00000000000000E+00   0.00000000000000E+00   2.92133553778962E-07
      4.63770115286268E-06   4.92983470664164E-06  -5.10564020848178E-28   0.00000000000000E+00   4.92983470664163E-10
      0.00000000000000E+00   0.00000000000000E+00   1.19271764470239E-09  -4.93102742428633E-06  -4.92983470664162E-06
     -1.23868401906897E-29
      9.00000000000000E-02
      1.80000000000000E+00   1.79999999823946E+00   0.00000000000000E+00   0.00000000000000E+00   1.36361539431982E-06
      1.62417968484808E-05   1.76054122428006E-05   1.72186755869486E-27   0.00000000000000E+00   1.76054122428007E-09
      0.00000000000000E+00   0.00000000000000E+00   1.19126039624635E-09  -1.76066035031969E-05  -1.76054122428007E-05
     -1.55803224273519E-29
      1.00000000000000E-01
      2.00000000000000E+00   1.99999999520021E+00   0.00000000000000E+00   0.00000000000000E+00   4.91135929656199E-06
      4.30864919012134E-05   4.79978511977753E-05  -2.18001129441964E-27   0.00000000000000E+00   4.79978511977752E-09
      0.00000000000000E+00   0.00000000000000E+00   1.18776453845112E-09  -4.79990389623137E-05  -4.79978511977752E-05
     -6.29019228433460E-30
      1.10000000000000E-01
      2.20000000000000E+00   2.19999998973333E+00   0.00000000000000E+00   0.00000000000000E+00   1.34492725429051E-05
      8.92173759882138E-05   1.02666648531119E-04   2.07588441906666E-28   0.00000000000000E+00   1.02666648531120E-08
      0.00000000000000E+00   0.00000000000000E+00   1.18119459646696E-09  -1.02667829725716E-04  -1.02666648531120E-04
     -8.12886387514010E-30
      1.20000000000000E-01
      2.40000000000000E+00   2.39999998185587E+00   0.00000000000000E+00   0.00000000000000E+00   2.95260222904503E-05
      1.51915421174097E-04   1.81441443464547E-04  -2.01740982386959E-27   0.00000000000000E+00   1.81441443464547E-08
      0.00000000000000E+00   0.00000000000000E+00   1.17120847110695E-09  -1.81442614673018E-04  -1.81441443464547E-04
     -6.67728104029366E-30
      1.30000000000000E-01
      2.60000000000000E+00   2.59999997205643E+00   0.00000000000000E+00   0.00000000000000E+00   5.51478515756989E-05
      2.24287773139633E-04   2.79435624715332E-04  -1.46416321941512E-27   0.00000000000000E+00   2.79435624715332E-08
      0.00000000000000E+00   0.00000000000000E+00   1.15825181814369E-09  -2.79436782967150E-04  -2.79435624715331E-04
      8.90304138705821E-30
      1.40000000000000E-01
      2.80000000000000E+00   2.79999996088508E+00   0.00000000000000E+00   0.00000000000000E+00   9.18401227897266E-05
      2.99309122413860E-04   3.91149245203586E-04  -6.80966539483165E-27   0.00000000000000E+00   3.91149245203586E-08
      0.00000000000000E+00   0.00000000000000E+00   1.14319934084602E-09  -3.91150388402927E-04  -3.91149245203586E-04
     -4.83860944948816E-31
      1.50000000000000E-01
      3.00000000000000E+00   2.99999994876171E+00   0.00000000000000E+00   0.00000000000000E+00   1.40858480965571E-04
      3.71524426606990E-04   5.12382907572561E-04   3.88574209060045E-27   0.00000000000000E+00   5.12382907572564E-08
      0.00000000000000E+00   0.00000000000000E+00   1.12690128860300E-09  -5.12384034473852E-04  -5.12382907572563E-04
     -2.98058342088470E-29
      1.60000000000000E-01
      3.20000000000000E+00   3.19999993585725E+00   0.00000000000000E+00   0.00000000000000E+00   2.03583003911093E-04
      4.37844547840689E-04   6.41427551751782E-04  -1.12831533752614E-27   0.00000000000000E+00   6.41427551751783E-08
      0.00000000000000E+00   0.00000000000000E+00   1.10983707952868E-09  -6.41428661588863E-04  -6.41427551751784E-04
      2.70962129171337E-30
      1.70000000000000E-01
      3.40000000000000E+00   3.39999992210278E+00   0.00000000000000E+00   0.00000000000000E+00   2.81735841974145E-04
      4.97236082229258E-04   7.78971924203403E-04  -3.09888742192469E-27   0.00000000000000E+00   7.78971924203399E-08
      0.00000000000000E+00   0.00000000000000E+00   1.09211494222595E-09  -7.78973016318341E-04  -7.78971924203398E-04
     -1.71286774511881E-29
      1.80000000000000E-01
      3.60000000000000E+00   3.59999990728497E+00   0.00000000000000E+00   0.00000000000000E+00   3.77361925017507E-04
      5.49788379748003E-04   9.27150304765510E-04  -3.28396423336761E-27   0.00000000000000E+00   9.27150304765510E-08
      0.00000000000000E+00   0.00000000000000E+00   1.07366508097805E-09  -9.27151378430592E-04  -9.27150304765511E-04
     -1.25803845686692E-30
      1.90000000000000E-01
      3.80000000000000E+00   3.79999989111194E+00   0.00000000000000E+00   0.00000000000000E+00   4.92741290385801E-04
      5.96139186099151E-04   1.08888047648495E-03  -2.58945442603533E-27   0.00000000000000E+00   1.08888047648495E-07
      0.00000000000000E+00   0.00000000000000E+00   1.05436687837373E-09  -1.08888153085183E-03  -1.08888047648495E-03
      2.09027928217888E-29
      2.00000000000000E-01
      4.00000000000000E+00   3.99999987325734E+00   0.00000000000000E+00   0.00000000000000E+00   6.30310383898902E-04
      6.37116016119660E-04   1.26742640001856E-03   5.47778975776554E-27   0.00000000000000E+00   1.26742640001856E-07
      0.00000000000000E+00   0.00000000000000E+00   1.03412250858698E-09  -1.26742743414107E-03  -1.26742640001856E-03
      2.55478578932975E-29
      2.10000000000000E-01
      4.20000000000000E+00   4.19999985338849E+00   0.00000000000000E+00   0.00000000000000E+00   7.92583941150427E-04
      6.73531196743565E-04   1.46611513789399E-03   3.29964132798395E-27   0.00000000000000E+00   1.46611513789398E-07
      0.00000000000000E+00   0.00000000000000E+00   1.01289496217009E-09  -1.46611615078894E-03  -1.46611513789397E-03
      4.25797631554958E-30
      2.20000000000000E-01
      4.40000000000000E+00   4.39999983118440E+00   0.00000000000000E+00   0.00000000000000E+00   9.82064105678460E-04
      7.06091977166432E-04   1.68815608284489E-03   1.79464024481516E-28   0.00000000000000E+00   1.68815608284490E-07
      0.00000000000000E+00   0.00000000000000E+00   9.90718706867252E-10  -1.68815707356361E-03  -1.68815608284490E-03
      5.61278696140626E-30
      2.30000000000000E-01
      4.60000000000000E+00   4.59999980634888E+00   0.00000000000000E+00   0.00000000000000E+00   1.20113370829425E-03
      7.35377619982985E-04   1.93651132827723E-03  -1.37822951559221E-27   0.00000000000000E+00   1.93651132827723E-07
      0.00000000000000E+00   0.00000000000000E+00   9.67692062922314E-10  -1.93651229596929E-03  -1.93651132827723E-03
      2.93219732638982E-29
      2.40000000000000E-01
      4.80000000000000E+00   4.79999977861929E+00   0.00000000000000E+00   0.00000000000000E+00   1.45195870240657E-03
      7.61848654742557E-04   2.21380735714913E-03   4.49177792414885E-27   0.00000000000000E+00   2.21380735714913E-07
      0.00000000000000E+00   0.00000000000000E+00   9.43958409854497E-10  -2.21380830110754E-03  -2.21380735714913E-03
      4.54829288251887E-30
      2.50000000000000E-01
      5.00000000000000E+00   4.99999974776937E+00   0.00000000000000E+00   0.00000000000000E+00   1.73643871131188E-03
      7.85867473759406E-04   2.52230618507129E-03   4.33602308596982E-27   0.00000000000000E+00   2.52230618507129E-07
      0.00000000000000E+00   0.00000000000000E+00   9.19682040200737E-10  -2.52230710475333E-03  -2.52230618507129E-03
      1.28707011356385E-29
      2.60000000000000E-01
      5.20000000000000E+00   5.19999971360791E+00   0.00000000000000E+00   0.00000000000000E+00   2.05620060657421E-03
      8.07720475630689E-04   2.86392108220490E-03   7.30881634564085E-27   0.00000000000000E+00   2.86392108220489E-07
      0.00000000000000E+00   0.00000000000000E+00   8.95025615966108E-10  -2.86392197723050E-03  -2.86392108220488E-03
     -2.32253253575432E-30
      2.70000000000000E-01
      5.40000000000000E+00   5.39999967597551E+00   0.00000000000000E+00   0.00000000000000E+00   2.41260749408548E-03
      8.27637796728740E-04   3.24024529081422E-03   3.38845400442931E-27   0.00000000000000E+00   3.24024529081421E-07
      0.00000000000000E+00   0.00000000000000E+00   8.70133197657243E-10  -3.24024616094741E-03  -3.24024529081421E-03
      1.60641833723007E-29
      2.80000000000000E-01
      5.60000000000000E+00   5.59999963474236E+00   0.00000000000000E+00   0.00000000000000E+00   2.80676739243090E-03
      8.45809124399765E-04   3.65257651683066E-03   4.59249357983994E-27   0.00000000000000E+00   3.65257651683064E-07
      0.00000000000000E+00   0.00000000000000E+00   8.45119481005835E-10  -3.65257736195012E-03  -3.65257651683064E-03
     -9.29013014301726E-30
      2.90000000000000E-01
      5.80000000000000E+00   5.79999958980690E+00   0.00000000000000E+00   0.00000000000000E+00   3.23953585523537E-03
      8.62395460781610E-04   4.10193131601698E-03   1.87580791833032E-27   0.00000000000000E+00   4.10193131601698E-07
      0.00000000000000E+00   0.00000000000000E+00   8.20065930254428E-10  -4.10193213608291E-03  -4.10193131601698E-03
      1.44190561594747E-29
      3.00000000000000E-01
      6.00000000000000E+00   5.99999954109518E+00   0.00000000000000E+00   0.00000000000000E+00   3.71151068420646E-03
      8.77537441508976E-04   4.58904812571543E-03   7.54556950600431E-27   0.00000000000000E+00   4.58904812571541E-07
      0.00000000000000E+00   0.00000000000000E+00   7.95024382680655E-10  -4.58904892073979E-03  -4.58904812571541E-03
      2.45801360033998E-29
      3.10000000000000E-01
      6.20000000000000E+00   6.19999948856188E+00   0.00000000000000E+00   0.00000000000000E+00   4.22302019332327E-03
      8.91361012072605E-04   5.11438120539588E-03  -9.14763309472984E-28   0.00000000000000E+00   5.11438120539586E-07
      0.00000000000000E+00   0.00000000000000E+00   7.70025333871634E-10  -5.11438197542121E-03  -5.11438120539588E-03
      8.80626919806845E-30
      3.20000000000000E-01
      6.40000000000000E+00   6.39999943219095E+00   0.00000000000000E+00   0.00000000000000E+00   4.77410936312862E-03
      9.03981178283825E-04   5.67809054141245E-03  -6.58026692083142E-28   0.00000000000000E+00   5.67809054141244E-07
      0.00000000000000E+00   0.00000000000000E+00   7.45083957145474E-10  -5.67809128649640E-03  -5.67809054141244E-03
     -7.74177511918105E-31
      3.30000000000000E-01
      6.60000000000000E+00   6.59999937199655E+00   0.00000000000000E+00   0.00000000000000E+00   5.36452993703011E-03
      9.15504377522684E-04   6.28003431455280E-03  -1.72651262376636E-27   0.00000000000000E+00   6.28003431455278E-07
      0.00000000000000E+00   0.00000000000000E+00   7.20197826214538E-10  -6.28003503475061E-03  -6.28003431455278E-03
      2.99993785868266E-29
      3.40000000000000E-01
      6.80000000000000E+00   6.79999930802297E+00   0.00000000000000E+00   0.00000000000000E+00   5.99374039841026E-03
      9.26029870413923E-04   6.91977026882418E-03  -2.69636350182177E-27   0.00000000000000E+00   6.91977026882415E-07
      0.00000000000000E+00   0.00000000000000E+00   6.95338462318604E-10  -6.91977096416262E-03  -6.91977026882416E-03
      1.19997514347306E-29
      3.50000000000000E-01
      7.00000000000000E+00   6.99999924034297E+00   0.00000000000000E+00   0.00000000000000E+00   6.66092004374744E-03
      9.35650446050704E-04   7.59657048979814E-03   1.76899561473287E-27   0.00000000000000E+00   7.59657048979811E-07
      0.00000000000000E+00   0.00000000000000E+00   6.70504305284023E-10  -7.59657116030242E-03  -7.59657048979812E-03
      1.44190561594747E-29
      3.60000000000000E-01
      7.20000000000000E+00   7.19999916905491E+00   0.00000000000000E+00   0.00000000000000E+00   7.36499793224470E-03
      9.44452686442368E-04   8.30945061868707E-03  -3.61521543627957E-27   0.00000000000000E+00   8.30945061868704E-07
      0.00000000000000E+00   0.00000000000000E+00   6.46433351848020E-10  -8.30945126512040E-03  -8.30945061868704E-03
     -3.73540649500486E-29
      3.70000000000000E-01
      7.40000000000000E+00   7.39999909427880E+00   0.00000000000000E+00   0.00000000000000E+00   8.10469543590021E-03
      9.52516969717824E-04   9.05721240561804E-03  -1.34900431451730E-28   0.00000000000000E+00   9.05721240561803E-07
      0.00000000000000E+00   0.00000000000000E+00   1.78470868397546E-09  -9.05721419032671E-03  -9.05721240561803E-03
     -1.89673490419936E-29
      3.80000000000000E-01
      7.60000000000000E+00   7.59999901615049E+00   0.00000000000000E+00   0.00000000000000E+00   8.87857818422281E-03
      9.59917365036616E-04   9.83849554925942E-03   3.36476901117406E-27   0.00000000000000E+00   9.83849554925942E-07
      0.00000000000000E+00   0.00000000000000E+00   1.87438470616790E-07  -9.83868298773003E-03  -9.83849554925941E-03
      1.74189940181574E-30
      3.90000000000000E-01
      7.80000000000000E+00   7.79999893481685E+00   0.00000000000000E+00   0.00000000000000E+00   9.68511029748973E-03
      9.66721519183668E-04   1.06518318166734E-02   5.16594137874603E-28   0.00000000000000E+00   1.06518318166734E-06
      0.00000000000000E+00   0.00000000000000E+00   2.54388803207400E-06  -1.06543757047054E-02  -1.06518318166734E-02
     -1.83867159080550E-29
      4.00000000000000E-01
      8.00000000000000E+00   7.99999885043015E+00   0.00000000000000E+00   0.00000000000000E+00   1.05227078074930E-02
      9.72990647900706E-04   1.14956984553937E-02   5.13981288771879E-28   0.00000000000000E+00   1.14956984553937E-06
      0.00000000000000E+00   0.00000000000000E+00   1.27117609078642E-05  -1.15084102163015E-02  -1.14956984553937E-02
      5.61278696140626E-30
      4.10000000000000E-01
      8.20000000000000E+00   8.19999876314277E+00   0.00000000000000E+00   0.00000000000000E+00   1.13897931973082E-02
      9.78779683402954E-04   1.23685728807112E-02  -1.22282305729355E-26   0.00000000000000E+00   1.23685728807112E-06
      0.00000000000000E+00   0.00000000000000E+00   3.83827669720878E-05  -1.24069556476833E-02  -1.23685728807112E-02
     -1.83867159080550E-29
      4.20000000000000E-01
      8.40000000000000E+00   8.39999867310197E+00   0.00000000000000E+00   0.00000000000000E+00   1.22848427932648E-02
      9.84137521038669E-04   1.32689803143035E-02  -5.79133165009237E-28   0.00000000000000E+00   1.32689803143035E-06
      0.00000000000000E+00   0.00000000000000E+00   8.68521421476068E-05  -1.33558324564511E-02  -1.32689803143035E-02
      1.91608934199731E-29
      4.30000000000000E-01
      8.60000000000000E+00   8.59999858044708E+00   0.00000000000000E+00   0.00000000000000E+00   1.32064213217406E-02
      9.89107350769011E-04   1.41955286725096E-02   2.27414644125943E-30   0.00000000000000E+00   1.41955286725096E-06
      0.00000000000000E+00   0.00000000000000E+00   1.64073824312307E-04  -1.43596024968220E-02  -1.41955286725097E-02
     -2.12898815777479E-30
      4.40000000000000E-01
      8.80000000000000E+00   8.79999848530676E+00   0.00000000000000E+00   0.00000000000000E+00   1.41532059490670E-02
      9.93727063895134E-04   1.51469330129621E-02   4.96390524118265E-27   0.00000000000000E+00   1.51469330129621E-06
      0.00000000000000E+00   0.00000000000000E+00   2.74751694387960E-04  -1.54216847073500E-02  -1.51469330129621E-02
      8.90304138705821E-30
      4.50000000000000E-01
      9.00000000000001E+00   8.99999838779708E+00   0.00000000000000E+00   0.00000000000000E+00   1.51239988472263E-02
      9.98029746708639E-04   1.61220285939350E-02  -9.72942749493629E-27   0.00000000000000E+00   1.61220285939348E-06
      0.00000000000000E+00   0.00000000000000E+00   4.22716546756772E-04  -1.65447451406916E-02  -1.61220285939348E-02
     -2.41930472474408E-30
      4.60000000000000E-01
      9.20000000000000E+00   9.19999828802383E+00   0.00000000000000E+00   0.00000000000000E+00   1.61177200326121E-02
      1.00204207116728E-03   1.71197621037794E-02  -4.01749742591002E-27   0.00000000000000E+00   1.71197621037793E-06
      0.00000000000000E+00   0.00000000000000E+00   6.11270885121097E-04  -1.77310329889004E-02  -1.71197621037793E-02
      4.16120412655981E-30
      4.70000000000000E-01
      9.40000000000001E+00   9.39999818607762E+00   0.00000000000000E+00   0.00000000000000E+00   1.71334305375907E-02
      1.00579355490564E-03   1.81392240924963E-02  -8.89394480129317E-27   0.00000000000000E+00   1.81392240924963E-06
      0.00000000000000E+00   0.00000000000000E+00   8.43421151638145E-04  -1.89826452441345E-02  -1.81392240924963E-02
     -1.05481685998842E-29
      4.80000000000000E-01
      9.60000000000000E+00   9.59999808204344E+00   0.00000000000000E+00   0.00000000000000E+00   1.81702609672242E-02
      1.00930435688477E-03   1.91795653241089E-02   4.01435232976785E-28   0.00000000000000E+00   1.91795653241090E-06
      0.00000000000000E+00   0.00000000000000E+00   1.12204255628633E-03  -2.03016078803953E-02  -1.91795653241090E-02
     -1.20965236237204E-29
      4.90000000000000E-01
      9.80000000000001E+00   9.79999797599913E+00   0.00000000000000E+00   0.00000000000000E+00   1.92274147662467E-02
      1.01259442247429E-03   2.02400091887210E-02   2.30615384276780E-27   0.00000000000000E+00   2.02400091887210E-06
      0.00000000000000E+00   0.00000000000000E+00   1.45000508369162E-03  -2.16900142724127E-02  -2.02400091887210E-02
     -1.38384230255361E-29
      5.00000000000000E-01
      1.00000000000000E+01   9.99999786801809E+00   0.00000000000000E+00   0.00000000000000E+00   2.03041340436318E-02
      1.01568433443248E-03   2.13198183780643E-02   5.70162383089886E-27   0.00000000000000E+00   2.13198183780643E-06
      0.00000000000000E+00   0.00000000000000E+00   1.83033356783897E-03  -2.31501519459033E-02  -2.13198183780643E-02
     -7.45145855221176E-30
      5.10000000000000E-01
      1.02000000000000E+01   1.01999977581780E+01   0.00000000000000E+00   0.00000000000000E+00   2.13996338979087E-02
      1.01858639230446E-03   2.24182202902132E-02   2.49304513275428E-27   0.00000000000000E+00   2.24182202902131E-06
      0.00000000000000E+00   0.00000000000000E+00   2.26640919645269E-03  -2.46846294866658E-02  -2.24182202902131E-02
     -2.61284910272360E-30
      5.20000000000000E-01
      1.04000000000000E+01   1.03999976465555E+01   0.00000000000000E+00   0.00000000000000E+00   2.25131268766562E-02
      1.02131903779699E-03   2.35344459144532E-02  -1.69629550775431E-27   0.00000000000000E+00   2.35344459144533E-06
      0.00000000000000E+00   0.00000000000000E+00   2.76197804435344E-03  -2.62964239588067E-02  -2.35344459144532E-02
      1.74189940181574E-30
      5.30000000000000E-01
      1.06000000000000E+01   1.05999975332327E+01   0.00000000000000E+00   0.00000000000000E+00   2.36437756504986E-02
      1.02389765877252E-03   2.46676733092711E-02  -1.36388303857447E-27   0.00000000000000E+00   2.46676733092711E-06
      0.00000000000000E+00   0.00000000000000E+00   3.32114204616592E-03  -2.79888153554370E-02  -2.46676733092711E-02
      1.45158283484645E-29
      5.40000000000000E-01
      1.08000000000000E+01   1.07999974182963E+01   0.00000000000000E+00   0.00000000000000E+00   2.47907005837257E-02
      1.02633697726150E-03   2.58170375609872E-02  -2.64139689847558E-28   0.00000000000000E+00   2.58170375609872E-06
      0.00000000000000E+00   0.00000000000000E+00   3.94826635890674E-03  -2.97653039198939E-02  -2.58170375609871E-02
      5.03215382746768E-30
      5.50000000000000E-01
      1.10000000000000E+01   1.09999973018360E+01   0.00000000000000E+00   0.00000000000000E+00   2.59529899474872E-02
      1.02865096532222E-03   2.69816409128094E-02  -6.10269616816694E-28   0.00000000000000E+00   2.69816409128094E-06
      0.00000000000000E+00   0.00000000000000E+00   4.64791740109807E-03  -3.16295583139075E-02  -2.69816409128094E-02
      1.93544377979526E-31
      5.60000000000000E-01
      1.12000000000000E+01   1.11999971839430E+01   0.00000000000000E+00   0.00000000000000E+00   2.71297174694532E-02
      1.03085272808963E-03   2.81605701975428E-02   4.55555079669310E-28   0.00000000000000E+00   2.81605701975428E-06
      0.00000000000000E+00   0.00000000000000E+00   5.42483219978539E-03  -3.35854023973282E-02  -2.81605701975428E-02
      2.17253564282018E-29
      5.70000000000000E-01
      1.14000000000000E+01   1.13999970647083E+01   0.00000000000000E+00   0.00000000000000E+00   2.83199626665617E-02
      1.03295438602725E-03   2.93529170525890E-02  -8.39295517889317E-27   0.00000000000000E+00   2.93529170525889E-06
      0.00000000000000E+00   0.00000000000000E+00   6.28389395585368E-03  -3.56368110084425E-02  -2.93529170525888E-02
      4.64506507150863E-30
      5.80000000000000E-01
      1.16000000000000E+01   1.15999969442203E+01   0.00000000000000E+00   0.00000000000000E+00   2.95228301646721E-02
      1.03496699175505E-03   3.05577971564271E-02   6.37148092308600E-28   0.00000000000000E+00   3.05577971564269E-06
      0.00000000000000E+00   0.00000000000000E+00   7.23010337942170E-03  -3.77879005358486E-02  -3.05577971564269E-02
     -2.99993785868266E-30
      5.90000000000000E-01
      1.18000000000000E+01   1.17999968225634E+01   0.00000000000000E+00   0.00000000000000E+00   3.07374655978537E-02
      1.03690049544065E-03   3.17743660932943E-02   2.87089214466481E-27   0.00000000000000E+00   3.17743660932943E-06
      0.00000000000000E+00   0.00000000000000E+00   8.26855745135955E-03  -4.00429235446538E-02  -3.17743660932942E-02
     -8.56433872559404E-30
      6.00000000000000E-01
      1.20000000000000E+01   1.19999966998169E+01   0.00000000000000E+00   0.00000000000000E+00   3.19630671015660E-02
      1.03876375776812E-03   3.30018308593341E-02  -1.61413591930200E-27   0.00000000000000E+00   3.30018308593340E-06
      0.00000000000000E+00   0.00000000000000E+00   9.40444676212356E-03  -4.24062776214576E-02  -3.30018308593340E-02
      9.67721889897631E-32
      6.10000000000000E-01
      1.22000000000000E+01   1.21999965760544E+01   0.00000000000000E+00   0.00000000000000E+00   3.31988924725418E-02
      1.04056460090090E-03   3.42394570734427E-02   3.02836468919840E-27   0.00000000000000E+00   3.42394570734429E-06
      0.00000000000000E+00   0.00000000000000E+00   1.06430674102607E-02  -4.48825244837035E-02  -3.42394570734428E-02
     -2.12414954832530E-29
      6.20000000000000E-01
      1.24000000000000E+01   1.23999964513427E+01   0.00000000000000E+00   0.00000000000000E+00   3.44442626718754E-02
      1.04230988492701E-03   3.54865725568024E-02  -1.74497191881616E-27   0.00000000000000E+00   3.54865725568023E-06
      0.00000000000000E+00   0.00000000000000E+00   1.19898375350874E-02  -4.74764100918897E-02  -3.54865725568023E-02
     -7.06436979625271E-30
      6.30000000000000E-01
      1.26000000000000E+01   1.25999963257432E+01   0.00000000000000E+00   0.00000000000000E+00   3.56985625533225E-02
      1.04400559804813E-03   3.67425681513706E-02   2.67033178298352E-27   0.00000000000000E+00   3.67425681513707E-06
      0.00000000000000E+00   0.00000000000000E+00   1.34503150125319E-02  -5.01928831639025E-02  -3.67425681513706E-02
      0.00000000000000E+00
      6.40000000000000E-01
      1.28000000000000E+01   1.27999961993104E+01   0.00000000000000E+00   0.00000000000000E+00   3.69612396563718E-02
      1.04565695128079E-03   3.80068966076526E-02  -2.91458478799369E-27   0.00000000000000E+00   3.80068966076525E-06
      0.00000000000000E+00   0.00000000000000E+00   1.50302186309711E-02  -5.30371152386237E-02  -3.80068966076526E-02
      2.06608623493144E-29
      6.50000000000000E-01
      1.30000000000000E+01   1.29999960720929E+01   0.00000000000000E+00   0.00000000000000E+00   3.82318017633595E-02
      1.04726847128496E-03   3.92790702346445E-02   2.77782149190390E-27   0.00000000000000E+00   3.92790702346445E-06
      0.00000000000000E+00   0.00000000000000E+00   1.67354537477869E-02  -5.60145239824314E-02  -3.92790702346445E-02
     -3.77411537060076E-30
      6.60000000000000E-01
      1.32000000000000E+01   1.31999959441342E+01   0.00000000000000E+00   0.00000000000000E+00   3.95098137585281E-02
      1.04884408740477E-03   4.05586578459328E-02  -3.01266340153481E-27   0.00000000000000E+00   4.05586578459327E-06
      0.00000000000000E+00   0.00000000000000E+00   1.85721405903681E-02  -5.91307984363009E-02  -4.05586578459328E-02
      6.19342009534484E-30
      6.70000000000000E-01
      1.34000000000000E+01   1.33999958154719E+01   0.00000000000000E+00   0.00000000000000E+00   4.07948941828156E-02
      1.05038721082828E-03   4.18452813936439E-02  -3.17775675595135E-27   0.00000000000000E+00   4.18452813936438E-06
      0.00000000000000E+00   0.00000000000000E+00   2.05466439224521E-02  -6.23919253160958E-02  -4.18452813936438E-02
     -7.98370559165546E-30
      6.80000000000000E-01
      1.36000000000000E+01   1.35999956861388E+01   0.00000000000000E+00   0.00000000000000E+00   4.20867117939884E-02
      1.05190080487173E-03   4.31386125988601E-02  -5.81269411081186E-27   0.00000000000000E+00   4.31386125988600E-06
      0.00000000000000E+00   0.00000000000000E+00   2.26656047824119E-02  -6.58042173812719E-02  -4.31386125988600E-02
      8.70949700907868E-31
      6.90000000000000E-01
      1.38000000000000E+01   1.37999955561630E+01   0.00000000000000E+00   0.00000000000000E+00   4.33849824554235E-02
      1.05338744573654E-03   4.44383699011601E-02  -4.12781772135835E-28   0.00000000000000E+00   4.44383699011599E-06
      0.00000000000000E+00   0.00000000000000E+00   2.49359753799175E-02  -6.93743452810774E-02  -4.44383699011599E-02
      1.26771567576590E-29
      7.00000000000000E-01
      1.40000000000000E+01   1.39999954255685E+01   0.00000000000000E+00   0.00000000000000E+00   4.46894666613775E-02
      1.05484937328038E-03   4.57443160346579E-02   1.57891084250973E-27   0.00000000000000E+00   4.57443160346581E-06
      0.00000000000000E+00   0.00000000000000E+00   2.73650575061736E-02  -7.31093735408316E-02  -4.57443160346580E-02
     -4.98376773297280E-30
      7.10000000000000E-01
      1.42000000000000E+01   1.41999952943744E+01   0.00000000000000E+00   0.00000000000000E+00   4.59999675191243E-02
      1.05628853333260E-03   4.70562560524569E-02   5.08397533467170E-27   0.00000000000000E+00   4.70562560524567E-06
      0.00000000000000E+00   0.00000000000000E+00   2.99605439566074E-02  -7.70168000090641E-02  -4.70562560524567E-02
      6.33857837882948E-30
      7.20000000000000E-01