DF-ISE text

Info {
  version   = 1.0
  type      = xyplot
  datasets  = [
    "time" "v(g)" "v(b)" ]
  functions = [
    Time Voltage Voltage ]
}

Data {
      1.00000000000000E-02   2.00000000000000E-01   0.00000000000000E+00
      2.00000000000000E-02   4.00000000000000E-01   0.00000000000000E+00
      3.00000000000000E-02   6.00000000000000E-01   0.00000000000000E+00
      4.00000000000000E-02   8.00000000000000E-01   0.00000000000000E+00
      5.00000000000000E-02   1.00000000000000E+00   0.00000000000000E+00
      6.00000000000000E-02   1.20000000000000E+00   0.00000000000000E+00
      7.00000000000000E-02   1.40000000000000E+00   0.00000000000000E+00
      8.00000000000000E-02   1.60000000000000E+00   0.00000000000000E+00
      9.00000000000000E-02   1.80000000000000E+00   0.00000000000000E+00
      1.00000000000000E-01   2.00000000000000E+00   0.00000000000000E+00
      1.10000000000000E-01   2.20000000000000E+00   0.00000000000000E+00
      1.20000000000000E-01   2.40000000000000E+00   0.00000000000000E+00
      1.30000000000000E-01   2.60000000000000E+00   0.00000000000000E+00
      1.40000000000000E-01   2.80000000000000E+00   0.00000000000000E+00
      1.50000000000000E-01   3.00000000000000E+00   0.00000000000000E+00
      1.60000000000000E-01   3.20000000000000E+00   0.00000000000000E+00
      1.70000000000000E-01   3.40000000000000E+00   0.00000000000000E+00
      1.80000000000000E-01   3.60000000000000E+00   0.00000000000000E+00
      1.90000000000000E-01   3.80000000000000E+00   0.00000000000000E+00
      2.00000000000000E-01   4.00000000000000E+00   0.00000000000000E+00
      2.10000000000000E-01   4.20000000000000E+00   0.00000000000000E+00
      2.20000000000000E-01   4.40000000000000E+00   0.00000000000000E+00
      2.30000000000000E-01   4.60000000000000E+00   0.00000000000000E+00
      2.40000000000000E-01   4.80000000000000E+00   0.00000000000000E+00
      2.50000000000000E-01   5.00000000000000E+00   0.00000000000000E+00
      2.60000000000000E-01   5.20000000000000E+00   0.00000000000000E+00
      2.70000000000000E-01   5.40000000000000E+00   0.00000000000000E+00
      2.80000000000000E-01   5.60000000000000E+00   0.00000000000000E+00
      2.90000000000000E-01   5.80000000000000E+00   0.00000000000000E+00
      3.00000000000000E-01   6.00000000000000E+00   0.00000000000000E+00
      3.10000000000000E-01   6.20000000000000E+00   0.00000000000000E+00
      3.20000000000000E-01   6.40000000000000E+00   0.00000000000000E+00
      3.30000000000000E-01   6.60000000000000E+00   0.00000000000000E+00
      3.40000000000000E-01   6.80000000000000E+00   0.00000000000000E+00
      3.50000000000000E-01   7.00000000000000E+00   0.00000000000000E+00
      3.60000000000000E-01   7.20000000000000E+00   0.00000000000000E+00
      3.70000000000000E-01   7.40000000000000E+00   0.00000000000000E+00
      3.80000000000000E-01   7.60000000000000E+00   0.00000000000000E+00
      3.90000000000000E-01   7.80000000000000E+00   0.00000000000000E+00
      4.00000000000000E-01   8.00000000000000E+00   0.00000000000000E+00
      4.10000000000000E-01   8.20000000000000E+00   0.00000000000000E+00
      4.20000000000000E-01   8.40000000000000E+00   0.00000000000000E+00
      4.30000000000000E-01   8.60000000000000E+00   0.00000000000000E+00
      4.40000000000000E-01   8.80000000000000E+00   0.00000000000000E+00
      4.50000000000000E-01   9.00000000000001E+00   0.00000000000000E+00
      4.60000000000000E-01   9.20000000000000E+00   0.00000000000000E+00
      4.70000000000000E-01   9.40000000000001E+00   0.00000000000000E+00
      4.80000000000000E-01   9.60000000000000E+00   0.00000000000000E+00
      4.90000000000000E-01   9.80000000000001E+00   0.00000000000000E+00
      5.00000000000000E-01   1.00000000000000E+01   0.00000000000000E+00
      5.10000000000000E-01   1.02000000000000E+01   0.00000000000000E+00
      5.20000000000000E-01   1.04000000000000E+01   0.00000000000000E+00
      5.30000000000000E-01   1.06000000000000E+01   0.00000000000000E+00
      5.40000000000000E-01   1.08000000000000E+01   0.00000000000000E+00
      5.50000000000000E-01   1.10000000000000E+01   0.00000000000000E+00
      5.60000000000000E-01   1.12000000000000E+01   0.00000000000000E+00
      5.70000000000000E-01   1.14000000000000E+01   0.00000000000000E+00
      5.80000000000000E-01   1.16000000000000E+01   0.00000000000000E+00
      5.90000000000000E-01   1.18000000000000E+01   0.00000000000000E+00
      6.00000000000000E-01   1.20000000000000E+01   0.00000000000000E+00
      6.10000000000000E-01   1.22000000000000E+01   0.00000000000000E+00
      6.20000000000000E-01   1.24000000000000E+01   0.00000000000000E+00
      6.30000000000000E-01   1.26000000000000E+01   0.00000000000000E+00
      6.40000000000000E-01   1.28000000000000E+01   0.00000000000000E+00
      6.50000000000000E-01   1.30000000000000E+01   0.00000000000000E+00
      6.60000000000000E-01   1.32000000000000E+01   0.00000000000000E+00
      6.70000000000000E-01   1.34000000000000E+01   0.00000000000000E+00
      6.80000000000000E-01   1.36000000000000E+01   0.00000000000000E+00
      6.90000000000000E-01   1.38000000000000E+01   0.00000000000000E+00
      7.00000000000000E-01   1.40000000000000E+01   0.00000000000000E+00
      7.10000000000000E-01   1.42000000000000E+01   0.00000000000000E+00
      7.20000000000000E-01   1.44000000000000E+01   0.00000000000000E+00
      7.30000000000000E-01   1.46000000000000E+01   0.00000000000000E+00
      7.40000000000000E-01   1.48000000000000E+01   0.00000000000000E+00
      7.50000000000000E-01   1.50000000000000E+01   0.00000000000000E+00
      7.60000000000000E-01   1.52000000000000E+01   0.00000000000000E+00
      7.70000000000000E-01   1.54000000000000E+01   0.00000000000000E+00
      7.80000000000000E-01   1.56000000000000E+01   0.00000000000000E+00
      7.90000000000000E-01   1.58000000000000E+01   0.00000000000000E+00
      8.00000000000000E-01   1.60000000000000E+01   0.00000000000000E+00
      8.10000000000000E-01   1.62000000000000E+01   0.00000000000000E+00
      8.20000000000001E-01   1.64000000000000E+01   0.00000000000000E+00
      8.30000000000001E-01   1.66000000000000E+01   0.00000000000000E+00
      8.40000000000001E-01   1.68000000000000E+01   0.00000000000000E+00
      8.50000000000001E-01   1.70000000000000E+01   0.00000000000000E+00
      8.60000000000001E-01   1.72000000000000E+01   0.00000000000000E+00
      8.70000000000001E-01   1.74000000000000E+01   0.00000000000000E+00
      8.80000000000001E-01   1.76000000000000E+01   0.00000000000000E+00
      8.90000000000001E-01   1.78000000000000E+01   0.00000000000000E+00
      9.00000000000001E-01   1.80000000000000E+01   0.00000000000000E+00
      9.10000000000001E-01   1.82000000000000E+01   0.00000000000000E+00
      9.20000000000001E-01   1.84000000000000E+01   0.00000000000000E+00
      9.30000000000001E-01   1.86000000000000E+01   0.00000000000000E+00
      9.40000000000001E-01   1.88000000000000E+01   0.00000000000000E+00
      9.50000000000001E-01   1.90000000000000E+01   0.00000000000000E+00
      9.60000000000001E-01   1.92000000000000E+01   0.00000000000000E+00
      9.70000000000001E-01   1.94000000000000E+01   0.00000000000000E+00
      9.80000000000001E-01   1.96000000000000E+01   0.00000000000000E+00
      9.90000000000001E-01   1.98000000000000E+01   0.00000000000000E+00
      1.00000000000000E+00   2.00000000000000E+01   0.00000000000000E+00
}
