DF-ISE text

Info {
  version   = 1.0
  type      = xyplot
  datasets  = [
    "time"
    "ntype OuterVoltage" "ntype InnerVoltage" "ntype QuasiFermiPotential" "ntype DisplacementCurrent" "ntype eCurrent"
    "ntype hCurrent" "ntype TotalCurrent" "ntype Charge" "ptype OuterVoltage" "ptype InnerVoltage"
    "ptype QuasiFermiPotential" "ptype DisplacementCurrent" "ptype eCurrent" "ptype hCurrent" "ptype TotalCurrent"
    "ptype Charge" ]
  functions = [
    Time
    OuterVoltage InnerVoltage QuasiFermiPotential DisplacementCurrent eCurrent
    hCurrent TotalCurrent Charge OuterVoltage InnerVoltage
    QuasiFermiPotential DisplacementCurrent eCurrent hCurrent TotalCurrent
    Charge ]
}

Data {
      1.00000000000000E-02
      2.00000000000000E-01   2.00000000000000E-01   0.00000000000000E+00   0.00000000000000E+00   3.75605780401854E-15
     -6.67470514716754E-20   3.75599105696707E-15  -9.34395967314282E-29   0.00000000000000E+00   0.00000000000000E+00
      0.00000000000000E+00   0.00000000000000E+00  -9.69227906007803E-15   5.93628812388528E-15  -3.75599093619275E-15
      3.20896578690055E-28
      2.00000000000000E-02
      4.00000000000000E-01   4.00000000000000E-01   0.00000000000000E+00   0.00000000000000E+00   6.40799417089986E-15
     -5.71983975590965E-21   6.40798845106010E-15  -3.39488935499713E-29   0.00000000000000E+00   0.00000000000000E+00
      0.00000000000000E+00   0.00000000000000E+00  -1.00285825479528E-14   3.62059418644509E-15  -6.40798836150769E-15
      3.22444933713891E-28
      3.00000000000000E-02
      6.00000000000000E-01   6.00000000000000E-01   0.00000000000000E+00   0.00000000000000E+00   8.77109505030145E-15
     -3.13680595998129E-20   8.77106368224185E-15  -3.83762211962529E-29   0.00000000000000E+00   0.00000000000000E+00
      0.00000000000000E+00   0.00000000000000E+00  -8.78117661846253E-15   1.01128290938418E-17  -8.77106378936869E-15
      2.99219608356348E-28
      4.00000000000000E-02
      8.00000000000000E-01   8.00000000000000E-01   0.00000000000000E+00   0.00000000000000E+00   1.06985252983451E-14
     -8.96231874478673E-21   1.06985163360263E-14  -3.91201573991117E-29   0.00000000000000E+00   0.00000000000000E+00
      0.00000000000000E+00   0.00000000000000E+00  -1.06377670694488E-14  -6.07493302798400E-17  -1.06985163997286E-14
      5.72117181307480E-28
      5.00000000000000E-02
      1.00000000000000E+00   1.00000000000000E+00   0.00000000000000E+00   0.00000000000000E+00   1.24254460099594E-14
      1.71888666256327E-20   1.24254631988260E-14  -7.01658852793901E-29   0.00000000000000E+00   0.00000000000000E+00
      0.00000000000000E+00   0.00000000000000E+00  -1.24630949751748E-14   3.76316701926879E-17  -1.24254633049821E-14
      4.02185217441456E-28
      6.00000000000000E-02
      1.20000000000000E+00   1.20000000000000E+00   0.00000000000000E+00   0.00000000000000E+00   1.41886415677815E-14
      1.44288434495494E-20   1.41886559966249E-14  -3.82250146509564E-29   0.00000000000000E+00   0.00000000000000E+00
      0.00000000000000E+00   0.00000000000000E+00  -1.38465687126710E-14  -3.42087253047385E-16  -1.41886559657184E-14
      2.88768211945453E-28
      7.00000000000000E-02
      1.40000000000000E+00   1.40000000000000E+00   0.00000000000000E+00   0.00000000000000E+00   1.61391798198000E-14
      4.90223433094570E-20   1.61392288421433E-14  -9.28710601211133E-29   0.00000000000000E+00   0.00000000000000E+00
      0.00000000000000E+00   0.00000000000000E+00  -1.60894670580568E-14  -4.97617981320389E-17  -1.61392288561889E-14
      3.38702661464171E-28
      8.00000000000000E-02
      1.60000000000000E+00   1.60000000000000E+00   0.00000000000000E+00   0.00000000000000E+00   1.81203945613835E-14
      1.67224990757546E-20   1.81204112838825E-14   1.98201539574659E-29   0.00000000000000E+00   0.00000000000000E+00
      0.00000000000000E+00   0.00000000000000E+00  -1.79415616960884E-14  -1.78849702183793E-16  -1.81204113982721E-14
      3.54960389214451E-28
      9.00000000000000E-02
      1.80000000000000E+00   1.80000000000000E+00   0.00000000000000E+00   0.00000000000000E+00   1.98022484031616E-14
     -1.02694970820314E-20   1.98022381336645E-14  -1.25223212552753E-28   0.00000000000000E+00   0.00000000000000E+00
      0.00000000000000E+00   0.00000000000000E+00  -1.94934118119289E-14  -3.08826372665036E-16  -1.98022381845939E-14
      3.14703158594710E-28
      1.00000000000000E-01
      2.00000000000000E+00   2.00000000000000E+00   0.00000000000000E+00   0.00000000000000E+00   2.12289044228900E-14
      9.24210693065417E-21   2.12289136649969E-14  -2.89893188642459E-29   0.00000000000000E+00   0.00000000000000E+00
      0.00000000000000E+00   0.00000000000000E+00  -2.09081729545480E-14  -3.20740728197748E-16  -2.12289136827457E-14
      5.14828045425540E-28
      1.10000000000000E-01
      2.20000000000000E+00   2.20000000000000E+00   0.00000000000000E+00   0.00000000000000E+00   2.26619159378383E-14
     -3.91794707835763E-20   2.26618767583675E-14  -3.77109123969483E-29   0.00000000000000E+00   0.00000000000000E+00
      0.00000000000000E+00   0.00000000000000E+00  -2.28734812368581E-14   2.11604437102247E-16  -2.26618767997559E-14
      3.47218614095270E-28
      1.20000000000000E-01
      2.40000000000000E+00   2.40000000000000E+00   0.00000000000000E+00   0.00000000000000E+00   2.39488869240922E-14
      4.17757567118336E-20   2.39489286998490E-14   5.57105395490443E-29   0.00000000000000E+00   0.00000000000000E+00
      0.00000000000000E+00   0.00000000000000E+00  -2.38153082729367E-14  -1.33620193402873E-16  -2.39489284663396E-14
      2.93026188261003E-28
      1.30000000000000E-01
      2.60000000000000E+00   2.60000000000000E+00   0.00000000000000E+00   0.00000000000000E+00   2.50971572542910E-14
      2.29033056894351E-20   2.50971801575967E-14   5.92729657562299E-29   0.00000000000000E+00   0.00000000000000E+00
      0.00000000000000E+00   0.00000000000000E+00  -2.47416974025802E-14  -3.55482781637540E-16  -2.50971801842178E-14
      3.17799868642382E-28
      1.40000000000000E-01
      2.80000000000000E+00   2.80000000000000E+00   0.00000000000000E+00   0.00000000000000E+00   2.64000868980583E-14
      8.27536948125712E-21   2.64000951734278E-14  -8.83953463803368E-29   0.00000000000000E+00   0.00000000000000E+00
      0.00000000000000E+00   0.00000000000000E+00  -2.65496668728062E-14   1.49571782760617E-16  -2.64000950900455E-14
      4.89280187532242E-28
      1.50000000000000E-01
      3.00000000000000E+00   3.00000000000000E+00   0.00000000000000E+00   0.00000000000000E+00   2.75176389658733E-14
      1.57117798251738E-20   2.75176546776531E-14  -5.53778851493920E-29   0.00000000000000E+00   0.00000000000000E+00
      0.00000000000000E+00   0.00000000000000E+00  -2.74833907619248E-14  -3.42639235139337E-17  -2.75176546854387E-14
      5.14053867913622E-28
      1.60000000000000E-01
      3.20000000000000E+00   3.20000000000000E+00   0.00000000000000E+00   0.00000000000000E+00   2.86663386871221E-14
      8.98298744878286E-20   2.86664285169966E-14   9.20787378237596E-29   0.00000000000000E+00   0.00000000000000E+00
      0.00000000000000E+00   0.00000000000000E+00  -2.84284321328243E-14  -2.37996565829975E-16  -2.86664286986543E-14
      5.18311844229171E-28
      1.70000000000000E-01
      3.40000000000000E+00   3.40000000000000E+00   0.00000000000000E+00   0.00000000000000E+00   2.98858817262380E-14
      3.24363421192558E-20   2.98859141625801E-14  -1.16362508998378E-28   0.00000000000000E+00   0.00000000000000E+00
      0.00000000000000E+00   0.00000000000000E+00  -2.93375652553525E-14  -5.48348879126644E-16  -2.98859141344791E-14
      3.01155052136143E-28
      1.80000000000000E-01
      3.60000000000000E+00   3.60000000000000E+00   0.00000000000000E+00   0.00000000000000E+00   3.09353035479938E-14
      1.29403401120000E-19   3.09354329513949E-14   1.29765457173461E-28   0.00000000000000E+00   0.00000000000000E+00
      0.00000000000000E+00   0.00000000000000E+00  -3.07046823646285E-14  -2.30750472412982E-16  -3.09354328370415E-14
      3.57282921750206E-28
      1.90000000000000E-01
      3.80000000000000E+00   3.80000000000000E+00   0.00000000000000E+00   0.00000000000000E+00   3.22118189640478E-14
      2.05312579008999E-19   3.22120242766268E-14  -6.22305657822296E-29   0.00000000000000E+00   0.00000000000000E+00
      0.00000000000000E+00   0.00000000000000E+00  -3.16586418372366E-14  -5.53382527871433E-16  -3.22120243651081E-14
      2.76381371754764E-28
      2.00000000000000E-01
      4.00000000000000E+00   4.00000000000000E+00   0.00000000000000E+00   0.00000000000000E+00   3.33485822859059E-14
      3.84546790492453E-19   3.33489668326964E-14  -4.94687333592045E-29   0.00000000000000E+00   0.00000000000000E+00
      0.00000000000000E+00   0.00000000000000E+00  -3.30065873223388E-14  -3.42379586453236E-16  -3.33489669087920E-14
      4.16894590167900E-28
      2.10000000000000E-01
      4.20000000000000E+00   4.20000000000000E+00   0.00000000000000E+00   0.00000000000000E+00   3.46595245608997E-14
      1.78618184151627E-19   3.46597031790838E-14  -4.36986915906899E-29   0.00000000000000E+00   0.00000000000000E+00
      0.00000000000000E+00   0.00000000000000E+00  -3.43590626992541E-14  -3.00640419814428E-16  -3.46597031190685E-14
      5.34569571979452E-28
      2.20000000000000E-01
      4.40000000000000E+00   4.40000000000000E+00   0.00000000000000E+00   0.00000000000000E+00   3.61210417655774E-14
     -3.19886984890074E-18   3.61178428957285E-14  -7.69520350322973E-29   0.00000000000000E+00   0.00000000000000E+00
      0.00000000000000E+00   0.00000000000000E+00  -3.61662627483297E-14   4.84197981660291E-17  -3.61178429501637E-14
      4.02959394953374E-28
      2.30000000000000E-01
      4.60000000000000E+00   4.60000000000000E+00   0.00000000000000E+00   0.00000000000000E+00   3.76525971565422E-14
      1.84622817428744E-20   3.76526156188240E-14  -6.82364897614067E-29   0.00000000000000E+00   0.00000000000000E+00
      0.00000000000000E+00   0.00000000000000E+00  -3.78468807803799E-14   1.94264999079613E-16  -3.76526157813003E-14
      5.82568577718374E-28
      2.40000000000000E-01
      4.80000000000000E+00   4.80000000000000E+00   0.00000000000000E+00   0.00000000000000E+00   3.95375202420504E-14
     -9.23018131538948E-20   3.95374279402372E-14  -5.72830876201279E-29   0.00000000000000E+00   0.00000000000000E+00
      0.00000000000000E+00   0.00000000000000E+00  -3.85019156895823E-14  -1.03551236901906E-15  -3.95374280586014E-14
      2.96897075820593E-28
      2.50000000000000E-01
      5.00000000000000E+00   5.00000000000000E+00   0.00000000000000E+00   0.00000000000000E+00   4.22157031017235E-14
      1.30551611259534E-20   4.22157161568846E-14   1.05179272908249E-29   0.00000000000000E+00   0.00000000000000E+00
      0.00000000000000E+00   0.00000000000000E+00  -4.15476488480973E-14  -6.68067135583737E-16  -4.22157159836810E-14
      3.61153809309796E-28
      2.60000000000000E-01
      5.20000000000000E+00   5.20000000000000E+00   0.00000000000000E+00   0.00000000000000E+00   4.70998750452432E-14
     -6.90286733684050E-20   4.70998060165699E-14  -3.64952117727644E-29   0.00000000000000E+00   0.00000000000000E+00
      0.00000000000000E+00   0.00000000000000E+00  -4.74932476748963E-14   3.93441620752548E-16  -4.70998060541437E-14
      3.73927738256445E-28
      2.70000000000000E-01
      5.40000000000000E+00   5.40000000000000E+00   0.00000000000000E+00   0.00000000000000E+00   5.82246618310598E-14
      1.01691858394997E-17   5.82348310168993E-14  -1.07541119145780E-28   0.00000000000000E+00   0.00000000000000E+00
      0.00000000000000E+00   0.00000000000000E+00  -5.85190562854315E-14   2.84225118268916E-16  -5.82348311671625E-14
      3.98314329881865E-28
      2.80000000000000E-01
      5.60000000000000E+00   5.60000000000000E+00   0.00000000000000E+00   0.00000000000000E+00   8.55982852262800E-14
      1.43001936440114E-17   8.56125854199240E-14  -6.26781371563072E-29   0.00000000000000E+00   0.00000000000000E+00
      0.00000000000000E+00   0.00000000000000E+00  -8.56852282392744E-14   7.26428735581760E-17  -8.56125853657162E-14
      4.41668270549279E-28
      2.90000000000000E-01
      5.80000000000000E+00   5.80000000000000E+00   0.00000000000000E+00   0.00000000000000E+00   1.50884144125747E-13
      2.00010369053307E-17   1.50904145162652E-13   1.59432181360635E-29   0.00000000000000E+00   0.00000000000000E+00
      0.00000000000000E+00   0.00000000000000E+00  -1.50018692424853E-13  -8.85452912578012E-16  -1.50904145337431E-13
      4.86957654996488E-28
      3.00000000000000E-01
      6.00000000000000E+00   6.00000000000000E+00   0.00000000000000E+00   0.00000000000000E+00   2.96755631552476E-13
      2.80041690863838E-17   2.96783635721563E-13  -9.55958020673563E-29   0.00000000000000E+00   0.00000000000000E+00
      0.00000000000000E+00   0.00000000000000E+00  -2.97061062067776E-13   2.77426377571346E-16  -2.96783635690205E-13
      4.46313335620788E-28
      3.10000000000000E-01
      6.20000000000000E+00   6.20000000000000E+00   0.00000000000000E+00   0.00000000000000E+00   5.99289656586895E-13
      3.90483832459749E-17   5.99328704970141E-13  -5.21208961637052E-29   0.00000000000000E+00   0.00000000000000E+00
      0.00000000000000E+00   0.00000000000000E+00  -5.99415993907995E-13   8.72889367533557E-17  -5.99328704971241E-13
      2.03221596878503E-28
      3.20000000000000E-01
      6.40000000000000E+00   6.40000000000000E+00   0.00000000000000E+00   0.00000000000000E+00   1.18229677609808E-12
      5.42289954597306E-17   1.18235100509354E-12   4.72187799651926E-29   0.00000000000000E+00   1.83689474415054E-16
      0.00000000000000E+00   0.00000000000000E+00  -1.18238326334012E-12   3.22583692309829E-17  -1.18235100497089E-12
      3.96765974858029E-28
      3.30000000000000E-01
      6.60000000000000E+00   6.60000000000000E+00   0.00000000000000E+00   0.00000000000000E+00   2.23337546404666E-12
      7.50474518549164E-17   2.23345051149852E-12  -4.42883971173463E-29   0.00000000000000E+00   1.83689474415054E-16
      0.00000000000000E+00   0.00000000000000E+00  -2.23390030897760E-12   4.49797387552318E-16  -2.23345051159005E-12
      3.70056850696854E-28
      3.40000000000000E-01
      6.80000000000000E+00   6.80000000000000E+00   0.00000000000000E+00   0.00000000000000E+00   4.02448855093111E-12
      6.04292665493456E-20   4.02448861136037E-12  -2.37243069570216E-29   0.00000000000000E+00   3.67378948830107E-16
      0.00000000000000E+00   0.00000000000000E+00  -4.02456567655346E-12   7.70653798733063E-17  -4.02448861117358E-12
      3.55734566726369E-28
      3.50000000000000E-01
      7.00000000000000E+00   7.00000000000000E+00   0.00000000000000E+00   0.00000000000000E+00   6.94237608634903E-12
      3.11853952166793E-21   6.94237608946757E-12   8.17898884490589E-29   0.00000000000000E+00   7.34757897660214E-16
      0.00000000000000E+00   0.00000000000000E+00  -6.94215750676759E-12  -2.18582720989147E-16  -6.94237608948858E-12
      5.20634376764926E-28
      3.60000000000000E-01
      7.20000000000000E+00   7.20000000000000E+00   0.00000000000000E+00   0.00000000000000E+00   1.15356400723757E-11
     -2.90596392815757E-20   1.15356400433160E-11   1.13289235965227E-28   0.00000000000000E+00   1.10213684649032E-15
      0.00000000000000E+00   0.00000000000000E+00  -1.15360284392068E-11   3.88395897822450E-16  -1.15356400433090E-11
      4.66054862174699E-28
      3.70000000000000E-01
      7.40000000000000E+00   7.40000000000000E+00   0.00000000000000E+00   0.00000000000000E+00   1.85893447266009E-11
     -4.12777718580028E-20   1.85893446853231E-11   3.10058944060018E-29   0.00000000000000E+00   1.83689474415053E-15
      0.00000000000000E+00   0.00000000000000E+00  -1.85892335203523E-11  -1.11165172172700E-16  -1.85893446855245E-11
      4.11088258828514E-28
      3.80000000000000E-01
      7.60000000000000E+00   7.60000000000000E+00   0.00000000000000E+00   0.00000000000000E+00   2.92723300299094E-11
     -6.98497148521401E-22   2.92723300292109E-11  -4.51517864909893E-29   0.00000000000000E+00   2.93903159064086E-15
      0.00000000000000E+00   0.00000000000000E+00  -2.92723281431155E-11  -1.88633362971873E-18  -2.92723300294491E-11
      4.11475347584473E-28
      3.90000000000000E-01
      7.80000000000000E+00   7.80000000000000E+00   0.00000000000000E+00   0.00000000000000E+00   4.54177206464846E-11
      4.10839296367430E-21   4.54177206505930E-11   2.64936548341271E-29   0.00000000000000E+00   4.59223686037634E-15
      0.00000000000000E+00   0.00000000000000E+00  -4.54179187683019E-11   1.98117749668377E-16  -4.54177206505522E-11
      4.24249276531122E-28
      4.00000000000000E-01
      8.00000000000000E+00   7.99999999999999E+00   0.00000000000000E+00   0.00000000000000E+00   6.99869409738697E-11
     -1.35960650586318E-20   6.99869409602736E-11  -3.30325818854745E-29   0.00000000000000E+00   6.98020002777203E-15
      0.00000000000000E+00   0.00000000000000E+00  -6.99870498215731E-11   1.08861177877796E-16  -6.99869409603952E-11
      5.18311844229171E-28
      4.10000000000000E-01
      8.20000000000000E+00   8.19999999999999E+00   0.00000000000000E+00   0.00000000000000E+00   1.07840383759734E-10
      8.20490512196512E-21   1.07840383767939E-10   5.08613456413853E-29   0.00000000000000E+00   1.08376789904882E-14
      0.00000000000000E+00   0.00000000000000E+00  -1.07840786851718E-10   4.03083866167606E-16  -1.07840383767852E-10
      4.91602720067997E-28
      4.20000000000000E-01
      8.40000000000000E+00   8.39999999999999E+00   0.00000000000000E+00   0.00000000000000E+00   1.67121132719778E-10
     -8.49518266332607E-21   1.67121132711283E-10  -2.28835985651731E-29   0.00000000000000E+00   1.67157421717699E-14
      0.00000000000000E+00   0.00000000000000E+00  -1.67120491979011E-10  -6.40732317988531E-16  -1.67121132711329E-10
      4.75344992317716E-28
      4.30000000000000E-01
      8.60000000000000E+00   8.59999999999998E+00   0.00000000000000E+00   0.00000000000000E+00   2.61955182459010E-10
     -6.27678939481404E-22   2.61955182458383E-10   1.46367935847017E-29   0.00000000000000E+00   2.62675948413527E-14
      0.00000000000000E+00   0.00000000000000E+00  -2.61954422318818E-10  -7.60139590666914E-16  -2.61955182458408E-10
      4.88118921264365E-28
      4.40000000000000E-01
      8.80000000000000E+00   8.79999999999996E+00   0.00000000000000E+00   0.00000000000000E+00   4.18153358433424E-10
     -4.67431786702788E-20   4.18153358386680E-10   3.46958538837360E-29   0.00000000000000E+00   4.18812001666322E-14
      0.00000000000000E+00   0.00000000000000E+00  -4.18152230903532E-10  -1.12748300296261E-15  -4.18153358386535E-10
      3.84185590289360E-28
      4.50000000000000E-01
      9.00000000000001E+00   8.99999999999994E+00   0.00000000000000E+00   0.00000000000000E+00   6.84843369842994E-10
      3.87779789046515E-20   6.84843369881772E-10  -5.46581419937806E-29   0.00000000000000E+00   6.85161739568150E-14
      0.00000000000000E+00   0.00000000000000E+00  -6.84841653084855E-10  -1.71679693012922E-15  -6.84843369881785E-10
      2.36511229890981E-28
      4.60000000000000E-01
      9.20000000000000E+00   9.19999999999989E+00   0.00000000000000E+00   0.00000000000000E+00   1.15307891263262E-09
      7.47312978291396E-20   1.15307891270736E-09   2.60498636236819E-29   0.00000000000000E+00   1.15356989932654E-13
      0.00000000000000E+00   0.00000000000000E+00  -1.15307652132070E-09  -2.39138670978151E-15  -1.15307891270741E-09
      2.63800987186094E-28
      4.70000000000000E-01
      9.40000000000001E+00   9.39999999999982E+00   0.00000000000000E+00   0.00000000000000E+00   1.97515984704777E-09
      1.14208811403386E-20   1.97515984705920E-09   1.40743052361987E-29   0.00000000000000E+00   1.97466184996183E-13
      0.00000000000000E+00   0.00000000000000E+00  -1.97515744912824E-09  -2.39793105338569E-15  -1.97515984705929E-09
      3.57089377372226E-28
      4.80000000000000E-01
      9.60000000000000E+00   9.59999999999967E+00   0.00000000000000E+00   0.00000000000000E+00   3.37191592439365E-09
     -7.93140920749577E-21   3.37191592438572E-09   1.57436254962721E-29   0.00000000000000E+00   3.37253875026038E-13
      0.00000000000000E+00   0.00000000000000E+00  -3.37191683581492E-09   9.11429247259850E-16  -3.37191592438567E-09
      4.36055483587873E-28
      4.90000000000000E-01
      9.80000000000001E+00   9.79999999999944E+00   0.00000000000000E+00   0.00000000000000E+00   5.61313345365243E-09
      7.06091899025321E-21   5.61313345365949E-09  -4.27249214389804E-29   0.00000000000000E+00   5.61355033812403E-13
      0.00000000000000E+00   0.00000000000000E+00  -5.61314026885403E-09   6.81519471029039E-15  -5.61313345365932E-09
      3.67347229405141E-28
      5.00000000000000E-01
      1.00000000000000E+01   9.99999999999911E+00   0.00000000000000E+00   0.00000000000000E+00   8.96997133019118E-09
     -5.30196111287054E-19   8.96997132966099E-09  -7.31960644471321E-29   0.00000000000000E+00   8.96955703568706E-13
      0.00000000000000E+00   0.00000000000000E+00  -8.96998764447550E-09   1.63148146971331E-14  -8.96997132966080E-09
      3.25541643761563E-28
      5.10000000000000E-01
      1.02000000000000E+01   1.01999999999986E+01   0.00000000000000E+00   0.00000000000000E+00   1.36671979103948E-08
     -1.73039236799814E-18   1.36671979086644E-08  -8.77663271519033E-29   0.00000000000000E+00   1.36664968964800E-12
      0.00000000000000E+00   0.00000000000000E+00  -1.36672265643321E-08   2.86556677057808E-14  -1.36671979086644E-08
      3.83217868399462E-29
      5.20000000000000E-01
      1.04000000000000E+01   1.03999999999980E+01   0.00000000000000E+00   0.00000000000000E+00   1.98645585315790E-08
     -2.01901661566424E-18   1.98645585295600E-08  -6.74441674640530E-29   0.00000000000000E+00   1.98641797632439E-12
      0.00000000000000E+00   0.00000000000000E+00  -1.98646008647792E-08   4.23352190137029E-14  -1.98645585295602E-08
      9.36754789420907E-29
      5.30000000000000E-01
      1.06000000000000E+01   1.05999999999972E+01   0.00000000000000E+00   0.00000000000000E+00   2.76659486552892E-08
     -1.48469364468218E-18   2.76659486538045E-08  -6.57143645858610E-29   0.00000000000000E+00   2.76654717416512E-12
      0.00000000000000E+00   0.00000000000000E+00  -2.76660049365258E-08   5.62827210991350E-14  -2.76659486538047E-08
      3.68702040050998E-28
      5.40000000000000E-01
      1.08000000000000E+01   1.07999999999963E+01   0.00000000000000E+00   0.00000000000000E+00   3.71376493570888E-08
     -8.55214031796519E-19   3.71376493562336E-08   4.04023889032261E-29   0.00000000000000E+00   3.71383379372355E-12
      0.00000000000000E+00   0.00000000000000E+00  -3.71377177133658E-08   6.83571321843012E-14  -3.71376493562336E-08
      1.68577153220167E-28
      5.50000000000000E-01
      1.10000000000000E+01   1.09999999999952E+01   0.00000000000000E+00   0.00000000000000E+00   4.83231962831826E-08
     -4.08973527296024E-19   4.83231962827736E-08   1.43543397580878E-28   0.00000000000000E+00   4.83231900343681E-12
      0.00000000000000E+00   0.00000000000000E+00  -4.83232728770245E-08   7.65942509006910E-14  -4.83231962827736E-08
      2.39607939938654E-28
      5.60000000000000E-01
      1.12000000000000E+01   1.11999999999939E+01   0.00000000000000E+00   0.00000000000000E+00   6.12523236788154E-08
     -1.61701566771214E-19   6.12523236786537E-08   5.41198466925250E-29   0.00000000000000E+00   6.12530921384437E-12
      0.00000000000000E+00   0.00000000000000E+00  -6.12524073142441E-08   8.36355903636577E-14  -6.12523236786537E-08
      1.75931839583389E-28
      5.70000000000000E-01
      1.14000000000000E+01   1.13999999999924E+01   0.00000000000000E+00   0.00000000000000E+00   7.59455287701779E-08
     -1.62334331447719E-20   7.59455287701616E-08  -1.17142734772108E-28   0.00000000000000E+00   7.59464131969039E-12
      0.00000000000000E+00   0.00000000000000E+00  -7.59456181243473E-08   8.93541855545436E-14  -7.59455287701618E-08
      3.87088755959053E-29
      5.80000000000000E-01
      1.16000000000000E+01   1.15999999999908E+01   0.00000000000000E+00   0.00000000000000E+00   9.24161323809014E-08
      1.24505149899396E-19   9.24161323810260E-08   7.71637241957124E-29   0.00000000000000E+00   9.24160114729576E-12
      0.00000000000000E+00   0.00000000000000E+00  -9.24162257533722E-08   9.33723462385000E-14  -9.24161323810260E-08
      3.80314702729769E-28
      5.90000000000000E-01
      1.18000000000000E+01   1.17999999999889E+01   0.00000000000000E+00   0.00000000000000E+00   1.10671055830307E-07
      1.21344128003411E-19   1.10671055830428E-07   4.71764421325095E-31   0.00000000000000E+00   1.10671071440326E-11
      0.00000000000000E+00   0.00000000000000E+00  -1.10671151260256E-07   9.54298279183063E-14  -1.10671055830428E-07
      1.02384975951169E-28
      6.00000000000000E-01
      1.20000000000000E+01   1.19999999999869E+01   0.00000000000000E+00   0.00000000000000E+00   1.30710950001786E-07
      7.62478228667687E-20   1.30710950001862E-07   2.09390823926600E-29   0.00000000000000E+00   1.30711593099008E-11
      0.00000000000000E+00   0.00000000000000E+00  -1.30711047349320E-07   9.73474581047194E-14  -1.30710950001862E-07
      2.18124513982926E-28
      6.10000000000000E-01
      1.22000000000000E+01   1.21999999999848E+01   0.00000000000000E+00   0.00000000000000E+00   1.52529958381890E-07
      1.58520394423857E-19   1.52529958382049E-07   6.85147098047523E-29   0.00000000000000E+00   1.52530228870028E-11
      0.00000000000000E+00   0.00000000000000E+00  -1.52530058628542E-07   1.00246493152343E-13  -1.52529958382049E-07
      1.40513218413136E-28
      6.20000000000000E-01
      1.24000000000000E+01   1.23999999999824E+01   0.00000000000000E+00   0.00000000000000E+00   1.76115202902825E-07
      1.54484633670652E-19   1.76115202902979E-07   8.99981357604797E-29   0.00000000000000E+00   1.76115957384921E-11
      0.00000000000000E+00   0.00000000000000E+00  -1.76115304438355E-07   1.01535375265139E-13  -1.76115202902979E-07
      3.06380750341590E-28
      6.30000000000000E-01
      1.26000000000000E+01   1.25999999999799E+01   0.00000000000000E+00   0.00000000000000E+00   2.01445971542393E-07
      1.65442293863710E-19   2.01445971542559E-07  -1.16489522496427E-29   0.00000000000000E+00   2.01446735906757E-11
      0.00000000000000E+00   0.00000000000000E+00  -2.01446074989528E-07   1.03446969702487E-13  -2.01445971542559E-07
      2.54510857043077E-28
      6.40000000000000E-01
      1.28000000000000E+01   1.27999999999772E+01   0.00000000000000E+00   0.00000000000000E+00   2.28492507898410E-07
      1.47251262932202E-19   2.28492507898558E-07  -2.23156667810394E-28   0.00000000000000E+00   2.28493174119629E-11
      0.00000000000000E+00   0.00000000000000E+00  -2.28492613339088E-07   1.05440529828318E-13  -2.28492507898558E-07
      3.67347229405141E-28
      6.50000000000000E-01
      1.30000000000000E+01   1.29999999999743E+01   0.00000000000000E+00   0.00000000000000E+00   2.57214221027223E-07
      1.95568467520498E-19   2.57214221027419E-07   4.14668829821135E-29   0.00000000000000E+00   2.57214860339167E-11
      0.00000000000000E+00   0.00000000000000E+00  -2.57214328517849E-07   1.07490430566772E-13  -2.57214221027419E-07
      4.36249027965852E-28
      6.60000000000000E-01
      1.32000000000000E+01   1.31999999999713E+01   0.00000000000000E+00   0.00000000000000E+00   2.87557018749275E-07
      2.21055919514012E-19   2.87557018749496E-07   3.50799185087891E-30   0.00000000000000E+00   2.87556687723046E-11
      0.00000000000000E+00   0.00000000000000E+00  -2.87557128341327E-07   1.09591831483694E-13  -2.87557018749495E-07
      2.14640715179295E-28
      6.70000000000000E-01
      1.34000000000000E+01   1.33999999999681E+01   0.00000000000000E+00   0.00000000000000E+00   3.19449279692036E-07
      2.20143647487737E-19   3.19449279692257E-07   2.03705457823451E-29   0.00000000000000E+00   3.19448854270987E-11
      0.00000000000000E+00   0.00000000000000E+00  -3.19449392326040E-07   1.12633783985860E-13  -3.19449279692256E-07
      2.21027679652619E-28
      6.80000000000000E-01
      1.36000000000000E+01   1.35999999999647E+01   0.00000000000000E+00   0.00000000000000E+00   3.52795654501810E-07
      2.66546255420031E-19   3.52795654502077E-07  -3.86967790722815E-29   0.00000000000000E+00   3.52795841456296E-11
      0.00000000000000E+00   0.00000000000000E+00  -3.52795771003817E-07   1.16501740293958E-13  -3.52795654502077E-07
      2.38446673670776E-28
      6.90000000000000E-01
      1.38000000000000E+01   1.37999999999613E+01   0.00000000000000E+00   0.00000000000000E+00   3.87467288750138E-07
      2.21078601429124E-19   3.87467288750359E-07   1.27255428521539E-28   0.00000000000000E+00   3.87467229752137E-11
      0.00000000000000E+00   0.00000000000000E+00  -3.87467410407938E-07   1.21657578893675E-13  -3.87467288750359E-07
      1.40126129657177E-28
      7.00000000000000E-01
      1.40000000000000E+01   1.39999999999577E+01   0.00000000000000E+00   0.00000000000000E+00   4.23285951655608E-07
      2.67540276848690E-19   4.23285951655875E-07   3.33138260597260E-29   0.00000000000000E+00   4.23286677263073E-11
      0.00000000000000E+00   0.00000000000000E+00  -4.23286081716906E-07   1.30061032232737E-13  -4.23285951655874E-07
      1.12255739228125E-28
      7.10000000000000E-01
      1.42000000000000E+01   1.41999999999540E+01   0.00000000000000E+00   0.00000000000000E+00   4.59997399153903E-07
      2.83051128983454E-19   4.59997399154186E-07  -3.53218489812635E-30   0.00000000000000E+00   4.59997018724921E-11
      0.00000000000000E+00   0.00000000000000E+00  -4.59997542230757E-07   1.43076571163456E-13  -4.59997399154186E-07
      3.08316194121385E-28
      7.20000000000000E-01