DF-ISE text

Info {
  version   = 1.0
  type      = xyplot
  datasets  = [
    "time"
    "ntype OuterVoltage" "ntype InnerVoltage" "ntype QuasiFermiPotential" "ntype DisplacementCurrent" "ntype eCurrent"
    "ntype hCurrent" "ntype TotalCurrent" "ntype Charge" "ptype OuterVoltage" "ptype InnerVoltage"
    "ptype QuasiFermiPotential" "ptype DisplacementCurrent" "ptype eCurrent" "ptype hCurrent" "ptype TotalCurrent"
    "ptype Charge" ]
  functions = [
    Time
    OuterVoltage InnerVoltage QuasiFermiPotential DisplacementCurrent eCurrent
    hCurrent TotalCurrent Charge OuterVoltage InnerVoltage
    QuasiFermiPotential DisplacementCurrent eCurrent hCurrent TotalCurrent
    Charge ]
}

Data {
      1.00000000000000E-02
      2.00000000000000E-01   1.99999999999583E-01   0.00000000000000E+00   0.00000000000000E+00   4.65763917758117E-09
     -4.82738246015701E-10   4.17490093156547E-09   5.87804517804663E-28   0.00000000000000E+00   4.17490093156546E-13
      0.00000000000000E+00   0.00000000000000E+00   1.73424582435712E-10  -4.34832551400231E-09  -4.17490093156660E-09
      5.05634687471512E-30
      2.00000000000000E-02
      4.00000000000000E-01   3.99999999999349E-01   0.00000000000000E+00   0.00000000000000E+00   6.80824661790657E-09
     -2.92091079281618E-10   6.51615553862495E-09  -3.65228258680992E-28   0.00000000000000E+00   6.51615553862497E-13
      0.00000000000000E+00   0.00000000000000E+00   1.73015126850338E-10  -6.68917066548138E-09  -6.51615553863105E-09
      4.45152069352910E-30
      3.00000000000000E-02
      6.00000000000000E-01   5.99999999999134E-01   0.00000000000000E+00   0.00000000000000E+00   8.75602542904229E-09
     -1.27560361020765E-10   8.62846506802153E-09  -1.44719500991012E-28   0.00000000000000E+00   8.62846506802150E-13
      0.00000000000000E+00   0.00000000000000E+00   1.72597314383164E-10  -8.80106238240350E-09  -8.62846506802034E-09
      3.62895708711612E-31
      4.00000000000000E-02
      8.00000000000000E-01   7.99999999998979E-01   0.00000000000000E+00   0.00000000000000E+00   1.02093110757875E-08
     -9.18842321018289E-13   1.02083922334665E-08   2.71987687564810E-28   0.00000000000000E+00   1.02083922334665E-12
      0.00000000000000E+00   0.00000000000000E+00   1.72182045650734E-10  -1.03805742791110E-08  -1.02083922334602E-08
      4.42732764628166E-30
      5.00000000000000E-02
      1.00000000000000E+00   9.99999999998772E-01   0.00000000000000E+00   0.00000000000000E+00   1.21494221439206E-08
      1.58189919552992E-10   1.23076120634736E-08  -2.20489308748091E-27   0.00000000000000E+00   1.23076120634745E-12
      0.00000000000000E+00   0.00000000000000E+00   1.71799213777692E-10  -1.24794112772539E-08  -1.23076120634763E-08
     -1.81447854355806E-30
      6.00000000000000E-02
      1.20000000000000E+00   1.19999999999859E+00   0.00000000000000E+00   0.00000000000000E+00   1.37383149414815E-08
      3.03538465172650E-10   1.40418534066542E-08   1.05094219226520E-27   0.00000000000000E+00   1.40418534066542E-12
      0.00000000000000E+00   0.00000000000000E+00   1.71464706140818E-10  -1.42133181127988E-08  -1.40418534066580E-08
     -4.11281803206493E-31
      7.00000000000000E-02
      1.40000000000000E+00   1.39999999999844E+00   0.00000000000000E+00   0.00000000000000E+00   1.51507925509760E-08
      4.76719415138556E-10   1.56275119661145E-08   3.15738545413628E-28   0.00000000000000E+00   1.56275119661146E-12
      0.00000000000000E+00   0.00000000000000E+00   1.71179827331673E-10  -1.57986917934484E-08  -1.56275119661168E-08
      5.39504953617930E-30
      8.00000000000000E-02
      1.60000000000000E+00   1.59999999999822E+00   0.00000000000000E+00   0.00000000000000E+00   1.69113772790288E-08
      8.40695329824365E-10   1.77520726088532E-08   1.16238141614872E-27   0.00000000000000E+00   1.77520726088532E-12
      0.00000000000000E+00   0.00000000000000E+00   1.70936362242828E-10  -1.79230089710955E-08  -1.77520726088526E-08
      1.52416197658877E-30
      9.00000000000000E-02
      1.80000000000000E+00   1.79999999999795E+00   0.00000000000000E+00   0.00000000000000E+00   1.85020400519379E-08
      1.96773270448091E-09   2.04697727564188E-08  -1.86441223704405E-27   0.00000000000000E+00   2.04697727564188E-12
      0.00000000000000E+00   0.00000000000000E+00   1.70723971186827E-10  -2.06404967276053E-08  -2.04697727564185E-08
     -4.54829288251887E-30
      1.00000000000000E-01
      2.00000000000000E+00   1.99999999999736E+00   0.00000000000000E+00   0.00000000000000E+00   2.01783260110664E-08
      6.31554508534331E-09   2.64938710964097E-08  -1.54226593625712E-27   0.00000000000000E+00   2.64938710964098E-12
      0.00000000000000E+00   0.00000000000000E+00   1.70534790645094E-10  -2.66644058870582E-08  -2.64938710964132E-08
     -5.80633133938579E-31
      1.10000000000000E-01
      2.20000000000000E+00   2.19999999999557E+00   0.00000000000000E+00   0.00000000000000E+00   2.15923886203230E-08
      2.27407377793542E-08   4.43331263996772E-08  -9.39051616843961E-28   0.00000000000000E+00   4.43331263996774E-12
      0.00000000000000E+00   0.00000000000000E+00   1.70360462138220E-10  -4.45034868618177E-08  -4.43331263996795E-08
     -1.11288017338228E-30
      1.20000000000000E-01
      2.40000000000000E+00   2.39999999998946E+00   0.00000000000000E+00   0.00000000000000E+00   2.48230666185181E-08
      8.06431259478010E-08   1.05466192566319E-07  -9.77612310025476E-28   0.00000000000000E+00   1.05466192566320E-11
      0.00000000000000E+00   0.00000000000000E+00   1.70188633351500E-10  -1.05636381199665E-07  -1.05466192566314E-07
      1.64512721282597E-30
      1.30000000000000E-01
      2.60000000000000E+00   2.59999999996992E+00   0.00000000000000E+00   0.00000000000000E+00   3.57619793984043E-08
      2.64886331458671E-07   3.00648310857075E-07   8.02335194783220E-28   0.00000000000000E+00   3.00648310857076E-11
      0.00000000000000E+00   0.00000000000000E+00   1.69989129735740E-10  -3.00818299986809E-07  -3.00648310857074E-07
     -6.53212275680901E-31
      1.40000000000000E-01
      2.80000000000000E+00   2.79999999991431E+00   0.00000000000000E+00   0.00000000000000E+00   7.35062143679189E-08
      7.83436385993739E-07   8.56942600361658E-07  -9.84681216018087E-28   0.00000000000000E+00   8.56942600361654E-11
      0.00000000000000E+00   0.00000000000000E+00   1.69687298582848E-10  -8.57112287660236E-07  -8.56942600361653E-07
      1.66932026007341E-30
      1.50000000000000E-01
      3.00000000000000E+00   2.99999999977474E+00   0.00000000000000E+00   0.00000000000000E+00   1.94814063355280E-07
      2.05789595244418E-06   2.25271001579946E-06  -5.96685220787256E-28   0.00000000000000E+00   2.25271001579948E-10
      0.00000000000000E+00   0.00000000000000E+00   1.69125921678031E-10  -2.25287914172116E-06  -2.25271001579948E-06
     -3.02413090593010E-30
      1.60000000000000E-01
      3.20000000000000E+00   3.19999999947087E+00   0.00000000000000E+00   0.00000000000000E+00   5.28343457724818E-07
      4.76290644050046E-06   5.29124989822527E-06  -1.41063005411834E-27   0.00000000000000E+00   5.29124989822525E-10
      0.00000000000000E+00   0.00000000000000E+00   1.68042247017181E-10  -5.29141794047227E-06  -5.29124989822526E-06
      1.04030103163995E-30
      1.70000000000000E-01
      3.40000000000000E+00   3.39999999890198E+00   0.00000000000000E+00   0.00000000000000E+00   1.29383347977454E-06
      9.68635127967193E-06   1.09801847594465E-05   1.72644004462462E-27   0.00000000000000E+00   1.09801847594464E-09
      0.00000000000000E+00   0.00000000000000E+00   1.66104992282429E-10  -1.09803508644387E-05  -1.09801847594464E-05
      1.62093416557853E-30
      1.80000000000000E-01
      3.60000000000000E+00   3.59999999798171E+00   0.00000000000000E+00   0.00000000000000E+00   2.77036183571257E-06
      1.74123079429969E-05   2.01826697787095E-05  -1.39264857175168E-27   0.00000000000000E+00   2.01826697787095E-09
      0.00000000000000E+00   0.00000000000000E+00   1.63020714715363E-10  -2.01828327994243E-05  -2.01826697787095E-05
     -1.69351330732086E-30
      1.90000000000000E-01
      3.80000000000000E+00   3.79999999666903E+00   0.00000000000000E+00   0.00000000000000E+00   5.22469899435980E-06
      2.80848243836221E-05   3.33095233779819E-05  -4.34458742469542E-28   0.00000000000000E+00   3.33095233779818E-09
      0.00000000000000E+00   0.00000000000000E+00   1.58633721076308E-10  -3.33096820117030E-05  -3.33095233779819E-05
      1.11288017338228E-30
      2.00000000000000E-01
      4.00000000000000E+00   3.99999999496969E+00   0.00000000000000E+00   0.00000000000000E+00   8.85905569272494E-06
      4.14437828585761E-05   5.03028385513010E-05   6.20539565373232E-28   0.00000000000000E+00   5.03028385513009E-09
      0.00000000000000E+00   0.00000000000000E+00   1.52945932701960E-10  -5.03029914972336E-05  -5.03028385513009E-05
     -3.77411537060076E-30
      2.10000000000000E-01
      4.20000000000000E+00   4.19999999291810E+00   0.00000000000000E+00   0.00000000000000E+00   1.38048487873901E-05
      5.70140387452129E-05   7.08188875326030E-05   9.16190699260583E-29   0.00000000000000E+00   7.08188875326029E-09
      0.00000000000000E+00   0.00000000000000E+00   1.46076914596060E-10  -7.08190336095176E-05  -7.08188875326030E-05
     -3.04832395317754E-30
      2.20000000000000E-01
      4.40000000000000E+00   4.39999999055897E+00   0.00000000000000E+00   0.00000000000000E+00   2.01414252415913E-05
      7.42688872852385E-05   9.44103125268297E-05   2.20309146149370E-27   0.00000000000000E+00   9.44103125268294E-09
      0.00000000000000E+00   0.00000000000000E+00   1.38212273519531E-10  -9.44104507391030E-05  -9.44103125268294E-05
      4.40313459903422E-30
      2.30000000000000E-01
      4.60000000000000E+00   4.59999998793663E+00   0.00000000000000E+00   0.00000000000000E+00   2.79167620818279E-05
      9.27171558105151E-05   1.20633917892343E-04  -1.16380653783814E-27   0.00000000000000E+00   1.20633917892343E-08
      0.00000000000000E+00   0.00000000000000E+00   1.29557549796586E-10  -1.20634047449893E-04  -1.20633917892343E-04
     -5.41924258342674E-30
      2.40000000000000E-01
      4.80000000000000E+00   4.79999998509015E+00   0.00000000000000E+00   0.00000000000000E+00   3.71623554044206E-05
      1.11936529853425E-04   1.49098885257846E-04   2.69183940198650E-27   0.00000000000000E+00   1.49098885257845E-08
      0.00000000000000E+00   0.00000000000000E+00   1.20304922810982E-10  -1.49099005562768E-04  -1.49098885257845E-04
      2.85477957519801E-30
      2.50000000000000E-01
      5.00000000000000E+00   4.99999998205074E+00   0.00000000000000E+00   0.00000000000000E+00   4.79057237178327E-05
      1.31586740362526E-04   1.79492464080358E-04  -4.62099298949743E-28   0.00000000000000E+00   1.79492464080358E-08
      0.00000000000000E+00   0.00000000000000E+00   1.10613764826528E-10  -1.79492574694123E-04  -1.79492464080358E-04
      1.49996892934133E-30
      2.60000000000000E-01
      5.20000000000000E+00   5.19999997883741E+00   0.00000000000000E+00   0.00000000000000E+00   6.01920717235071E-05
      1.51433968676509E-04   2.11626040400016E-04   2.25331622757939E-27   0.00000000000000E+00   2.11626040400015E-08
      0.00000000000000E+00   0.00000000000000E+00   1.00593464035343E-10  -2.11626140993479E-04  -2.11626040400015E-04
      5.12892601645745E-30
      2.70000000000000E-01
      5.40000000000000E+00   5.39999997545578E+00   0.00000000000000E+00   0.00000000000000E+00   7.40944439246060E-05
      1.71347973417070E-04   2.45442417341676E-04  -3.84983960848525E-28   0.00000000000000E+00   2.45442417341676E-08
      0.00000000000000E+00   0.00000000000000E+00   9.03070168357179E-11  -2.45442507648693E-04  -2.45442417341676E-04
      2.03221596878503E-30
      2.80000000000000E-01
      5.60000000000000E+00   5.59999997194233E+00   0.00000000000000E+00   0.00000000000000E+00   8.95647949604361E-05
      1.91011970059496E-04   2.80576765019932E-04   2.57389829665523E-28   0.00000000000000E+00   2.80576765019933E-08
      0.00000000000000E+00   0.00000000000000E+00   7.99072807142890E-11  -2.80576844927213E-04  -2.80576765019933E-04
      2.41930472474408E-32
      2.90000000000000E-01
      5.80000000000000E+00   5.79999996832761E+00   0.00000000000000E+00   0.00000000000000E+00   1.06546875223169E-04
      2.10177467162835E-04   3.16724342386003E-04   1.62475666704363E-27   0.00000000000000E+00   3.16724342386001E-08
      0.00000000000000E+00   0.00000000000000E+00   6.95198246746357E-11  -3.16724411905826E-04  -3.16724342386001E-04
      5.44343563067418E-30
      3.00000000000000E-01
      6.00000000000000E+00   5.99999996462396E+00   0.00000000000000E+00   0.00000000000000E+00   1.25029899773964E-04
      2.28730990893718E-04   3.53760890667683E-04  -4.71183788191157E-28   0.00000000000000E+00   3.53760890667682E-08
      0.00000000000000E+00   0.00000000000000E+00   5.92092945384503E-11  -3.53760949876976E-04  -3.53760890667681E-04
     -3.60476403986868E-30
      3.10000000000000E-01
      6.20000000000000E+00   6.19999996083699E+00   0.00000000000000E+00   0.00000000000000E+00   1.45019926330543E-04
      2.46610533968045E-04   3.91630460298588E-04  -2.35954789804290E-28   0.00000000000000E+00   3.91630460298583E-08
      0.00000000000000E+00   0.00000000000000E+00   4.90141500149718E-11  -3.91630509312733E-04  -3.91630460298583E-04
      1.20965236237204E-31
      3.20000000000000E-01
      6.40000000000000E+00   6.39999995696895E+00   0.00000000000000E+00   0.00000000000000E+00   1.66530303833563E-04
      2.63780233498396E-04   4.30310537331959E-04   9.75947525961761E-29   0.00000000000000E+00   4.30310537331956E-08
      0.00000000000000E+00   0.00000000000000E+00   3.89567817389542E-11  -4.30310576288739E-04  -4.30310537331957E-04
      2.39511167749664E-30
      3.30000000000000E-01
      6.60000000000000E+00   6.59999995302006E+00   0.00000000000000E+00   0.00000000000000E+00   1.89578101618758E-04
      2.80221092234042E-04   4.69799193852799E-04   1.05665553157922E-27   0.00000000000000E+00   4.69799193852799E-08
      0.00000000000000E+00   0.00000000000000E+00   2.90475881952397E-11  -4.69799222900387E-04  -4.69799193852799E-04
     -5.41924258342674E-30
      3.40000000000000E-01
      6.80000000000000E+00   6.79999994898905E+00   0.00000000000000E+00   0.00000000000000E+00   2.14182347925787E-04
      2.95927128353972E-04   5.10109476279760E-04  -2.26650143832924E-27   0.00000000000000E+00   5.10109476279760E-08
      0.00000000000000E+00   0.00000000000000E+00   1.92876345457225E-11  -5.10109495567395E-04  -5.10109476279761E-04
      1.62093416557853E-30
      3.50000000000000E-01
      7.00000000000000E+00   6.99999994487340E+00   0.00000000000000E+00   0.00000000000000E+00   2.40363275955819E-04
      3.10902531370527E-04   5.51265807326346E-04   2.92837482492473E-27   0.00000000000000E+00   5.51265807326345E-08
      0.00000000000000E+00   0.00000000000000E+00   9.67115940145532E-12  -5.51265816997504E-04  -5.51265807326344E-04
     -8.10467082789266E-31
      3.60000000000000E-01
      7.20000000000000E+00   7.19999994066986E+00   0.00000000000000E+00   0.00000000000000E+00   2.68142138860995E-04
      3.25159110415090E-04   5.93301249276084E-04  -7.27291386352565E-28   0.00000000000000E+00   5.93301249276088E-08
      0.00000000000000E+00   0.00000000000000E+00   2.54276454170701E-13  -5.93301249530363E-04  -5.93301249276087E-04
     -4.59667897701375E-30
      3.70000000000000E-01
      7.40000000000000E+00   7.39999993637449E+00   0.00000000000000E+00   0.00000000000000E+00   2.97541224804369E-04
      3.38714153912601E-04   6.36255378716969E-04   8.65385300040957E-29   0.00000000000000E+00   6.36255378716971E-08
      0.00000000000000E+00   0.00000000000000E+00  -8.76856606786651E-12  -6.36255369948406E-04  -6.36255378716972E-04
     -8.34660130036707E-31
      3.80000000000000E-01
      7.60000000000000E+00   7.59999993198273E+00   0.00000000000000E+00   0.00000000000000E+00   3.28583864289630E-04
      3.51588749802356E-04   6.80172614091987E-04   1.48492085395342E-27   0.00000000000000E+00   6.80172614091990E-08
      0.00000000000000E+00   0.00000000000000E+00  -1.76657156039781E-11  -6.80172596426274E-04  -6.80172614091990E-04
     -6.53212275680901E-31
      3.90000000000000E-01
      7.80000000000000E+00   7.79999992748988E+00   0.00000000000000E+00   0.00000000000000E+00   3.61294344056253E-04
      3.63806515546306E-04   7.25100859602560E-04  -9.87076327695584E-29   0.00000000000000E+00   7.25100859602561E-08
      0.00000000000000E+00   0.00000000000000E+00  -2.64571688512332E-11  -7.25100833145391E-04  -7.25100859602559E-04
      5.08053992196256E-31
      4.00000000000000E-01
      8.00000000000000E+00   7.99999992289096E+00   0.00000000000000E+00   0.00000000000000E+00   3.95697701652817E-04
      3.75392656931708E-04   7.71090358584525E-04  -2.15250379969930E-27   0.00000000000000E+00   7.71090358584525E-08
      0.00000000000000E+00   0.00000000000000E+00  -3.51610697224376E-11  -7.71090323423453E-04  -7.71090358584523E-04
      3.26606137840451E-31
      4.10000000000000E-01
      8.20000000000000E+00   8.19999991818077E+00   0.00000000000000E+00   0.00000000000000E+00   4.31819409856549E-04
      3.86373277595951E-04   8.18192687452500E-04  -4.27708882287506E-28   0.00000000000000E+00   8.18192687452501E-08
      0.00000000000000E+00   0.00000000000000E+00  -4.37942821414157E-11  -8.18192643658218E-04  -8.18192687452500E-04
      4.68135464237979E-30
      4.20000000000000E-01
      8.40000000000000E+00   8.39999991335402E+00   0.00000000000000E+00   0.00000000000000E+00   4.69684979486998E-04
      3.96774873894062E-04   8.66459853381060E-04   5.01383969070137E-27   0.00000000000000E+00   8.66459853381060E-08
      0.00000000000000E+00   0.00000000000000E+00  -5.23720147929754E-11  -8.66459801009046E-04  -8.66459853381061E-04
     -4.72974073687467E-30
      4.30000000000000E-01
      8.60000000000000E+00   8.59999990840570E+00   0.00000000000000E+00   0.00000000000000E+00   5.09319516473985E-04
      4.06623964330728E-04   9.15943480804714E-04   2.33849994693763E-28   0.00000000000000E+00   9.15943480804713E-08
      0.00000000000000E+00   0.00000000000000E+00  -6.09015973289575E-11  -9.15943419903115E-04  -9.15943480804712E-04
      1.79028549631062E-30
      4.40000000000000E-01
      8.80000000000000E+00   8.79999990333063E+00   0.00000000000000E+00   0.00000000000000E+00   5.50747266811811E-04
      4.15946817501383E-04   9.66694084313194E-04   1.26708665653746E-27   0.00000000000000E+00   9.66694084313195E-08
      0.00000000000000E+00   0.00000000000000E+00  -6.92669320508124E-11  -9.66694015046263E-04  -9.66694084313195E-04
     -2.87897262244545E-30
      4.50000000000000E-01
      9.00000000000001E+00   8.99999989812400E+00   0.00000000000000E+00   0.00000000000000E+00   5.93991180724083E-04
      4.24769250583961E-04   1.01876043130804E-03  -2.36058819907454E-27   0.00000000000000E+00   1.01876043130805E-07
      0.00000000000000E+00   0.00000000000000E+00  -7.61166033459937E-11  -1.01876035519144E-03  -1.01876043130804E-03
      8.70949700907868E-31
      4.60000000000000E-01
      9.20000000000000E+00   9.19999989278109E+00   0.00000000000000E+00   0.00000000000000E+00   6.39072519447823E-04
      4.33116479324377E-04   1.07218899877220E-03   9.33222604522781E-28   0.00000000000000E+00   1.07218899877220E-07
      0.00000000000000E+00   0.00000000000000E+00  -7.36601818735169E-11  -1.07218892511202E-03  -1.07218899877220E-03
      4.31845893366818E-30
      4.70000000000000E-01
      9.40000000000001E+00   9.39999988729772E+00   0.00000000000000E+00   0.00000000000000E+00   6.86010521851924E-04
      4.41013006029223E-04   1.12702352788115E-03   2.69595222001856E-27   0.00000000000000E+00   1.12702352788114E-07
      0.00000000000000E+00   0.00000000000000E+00  -2.91164632195549E-11  -1.12702349876468E-03  -1.12702352788115E-03
     -7.98370559165546E-31
      4.80000000000000E-01
      9.60000000000000E+00   9.59999988166948E+00   0.00000000000000E+00   0.00000000000000E+00   7.34822142440866E-04
      4.48482536048711E-04   1.18330467848958E-03  -3.87524230809506E-28   0.00000000000000E+00   1.18330467848958E-07
      0.00000000000000E+00   0.00000000000000E+00   1.62220489963304E-10  -1.18330484071007E-03  -1.18330467848958E-03
     -1.83867159080550E-30
      4.90000000000000E-01
      9.80000000000001E+00   9.79999987589307E+00   0.00000000000000E+00   0.00000000000000E+00   7.85521867066236E-04
      4.55547916207788E-04   1.24106978327402E-03   5.27698746561178E-28   0.00000000000000E+00   1.24106978327402E-07
      0.00000000000000E+00   0.00000000000000E+00   7.70076729776017E-10  -1.24107055335075E-03  -1.24106978327402E-03
      2.12898815777479E-30
      5.00000000000000E-01
      1.00000000000000E+01   9.99999986996477E+00   0.00000000000000E+00   0.00000000000000E+00   8.38121608217785E-04
      4.62231090794698E-04   1.30035269901248E-03  -2.15211671094334E-27   0.00000000000000E+00   1.30035269901249E-07
      0.00000000000000E+00   0.00000000000000E+00   2.38365916696016E-09  -1.30035508267165E-03  -1.30035269901249E-03
      8.10467082789266E-31
      5.10000000000000E-01
      1.02000000000000E+01   1.01999998638816E+01   0.00000000000000E+00   0.00000000000000E+00   8.92630678085447E-04
      4.68553072220647E-04   1.36118375030609E-03   3.19299837571723E-28   0.00000000000000E+00   1.36118375030610E-07
      0.00000000000000E+00   0.00000000000000E+00   6.13352444692665E-09  -1.36118988383054E-03  -1.36118375030610E-03
      7.25791417423224E-32
      5.20000000000000E-01
      1.04000000000000E+01   1.03999998576410E+01   0.00000000000000E+00   0.00000000000000E+00   9.49055834404200E-04
      4.74533924588615E-04   1.42358975899282E-03   2.75074947203402E-27   0.00000000000000E+00   1.42358975899282E-07
      0.00000000000000E+00   0.00000000000000E+00   1.39756036877415E-08  -1.42360373459650E-03  -1.42358975899281E-03
      4.23378326830214E-31
      5.30000000000000E-01
      1.06000000000000E+01   1.05999998512406E+01   0.00000000000000E+00   0.00000000000000E+00   1.00740139144954E-03
      4.80192759118359E-04   1.48759415056790E-03   4.32136209933787E-28   0.00000000000000E+00   1.48759415056789E-07
      0.00000000000000E+00   0.00000000000000E+00   2.90217684427458E-08  -1.48762317233634E-03  -1.48759415056790E-03
      2.69752476808965E-30
      5.40000000000000E-01
      1.08000000000000E+01   1.07999998446783E+01   0.00000000000000E+00   0.00000000000000E+00   1.06766938689066E-03
      4.85547740318763E-04   1.55321712720942E-03  -1.10436422075118E-27   0.00000000000000E+00   1.55321712720942E-07
      0.00000000000000E+00   0.00000000000000E+00   5.58953226342186E-08  -1.55327302253205E-03  -1.55321712720942E-03
      2.62494562634733E-30
      5.50000000000000E-01
      1.10000000000000E+01   1.09999998379525E+01   0.00000000000000E+00   0.00000000000000E+00   1.12985979420897E-03
      4.90616101140384E-04   1.62047589534936E-03   8.80022093625659E-28   0.00000000000000E+00   1.62047589534936E-07
      0.00000000000000E+00   0.00000000000000E+00   1.01086056583343E-07  -1.62057698140594E-03  -1.62047589534936E-03
      1.07659060251111E-30
      5.60000000000000E-01
      1.12000000000000E+01   1.11999998310616E+01   0.00000000000000E+00   0.00000000000000E+00   1.19397077031680E-03
      4.95414164446297E-04   1.68938493476309E-03  -2.03608685634462E-27   0.00000000000000E+00   1.68938493476310E-07
      0.00000000000000E+00   0.00000000000000E+00   1.73281979886671E-07  -1.68955821674298E-03  -1.68938493476309E-03
      1.17336279150088E-30
      5.70000000000000E-01
      1.14000000000000E+01   1.13999998240043E+01   0.00000000000000E+00   0.00000000000000E+00   1.25999903755881E-03
      4.99957397358238E-04   1.75995643491705E-03   1.46290518095825E-27   0.00000000000000E+00   1.75995643491705E-07
      0.00000000000000E+00   0.00000000000000E+00   2.83658378051157E-07  -1.76024009329510E-03  -1.75995643491705E-03
     -9.91914937145072E-31
      5.80000000000000E-01
      1.16000000000000E+01   1.15999998167800E+01   0.00000000000000E+00   0.00000000000000E+00   1.32793974574815E-03
      5.04260323865856E-04   1.83220006961400E-03   4.22212221952887E-27   0.00000000000000E+00   1.83220006961399E-07
      0.00000000000000E+00   0.00000000000000E+00   4.46110094333460E-07  -1.83264617970832E-03  -1.83220006961399E-03
     -5.04425035109140E-30
      5.90000000000000E-01
      1.18000000000000E+01   1.17999998093876E+01   0.00000000000000E+00   0.00000000000000E+00   1.39778736527270E-03
      5.08336714786275E-04   1.90612408005898E-03   2.85630373717460E-27   0.00000000000000E+00   1.90612408005896E-07
      0.00000000000000E+00   0.00000000000000E+00   6.77421969565183E-07  -1.90680150202853E-03  -1.90612408005896E-03
     -3.02413090593010E-31
      6.00000000000000E-01
      1.20000000000000E+01   1.19999998018266E+01   0.00000000000000E+00   0.00000000000000E+00   1.46953556896739E-03
      5.12199509900452E-04   1.98173507886784E-03  -2.26076768613160E-27   0.00000000000000E+00   1.98173507886784E-07
      0.00000000000000E+00   0.00000000000000E+00   9.97372484506305E-07  -1.98273245135234E-03  -1.98173507886784E-03
      2.02011944516131E-30
      6.10000000000000E-01
      1.22000000000000E+01   1.21999997940961E+01   0.00000000000000E+00   0.00000000000000E+00   1.54317757083795E-03
      5.15860871743769E-04   2.05903844258172E-03   2.20701073514779E-27   0.00000000000000E+00   2.05903844258171E-07
      0.00000000000000E+00   0.00000000000000E+00   1.42877560553292E-06  -2.06046721818724E-03  -2.05903844258171E-03
      2.55236648460500E-30
      6.20000000000000E-01
      1.24000000000000E+01   1.23999997861961E+01   0.00000000000000E+00   0.00000000000000E+00   1.61870633266718E-03
      5.19332216273144E-04   2.13803854894032E-03   4.93359135298161E-27   0.00000000000000E+00   2.13803854894032E-07
      0.00000000000000E+00   0.00000000000000E+00   1.99746682150387E-06  -2.14003601576182E-03  -2.13803854894032E-03
     -2.91526219331661E-30
      6.30000000000000E-01
      1.26000000000000E+01   1.25999997781261E+01   0.00000000000000E+00   0.00000000000000E+00   1.69611472142161E-03
      5.22624245983028E-04   2.21873896740464E-03   1.19586232544100E-27   0.00000000000000E+00   2.21873896740464E-07
      0.00000000000000E+00   0.00000000000000E+00   2.73224127669506E-06  -2.22147120868133E-03  -2.21873896740464E-03
     -1.20965236237204E-31
      6.40000000000000E-01
      1.28000000000000E+01   1.27999997698858E+01   0.00000000000000E+00   0.00000000000000E+00   1.77539561038143E-03
      5.25746985316052E-04   2.30114259569748E-03   1.17747560953294E-28   0.00000000000000E+00   2.30114259569747E-07
      0.00000000000000E+00   0.00000000000000E+00   3.66475330183234E-06  -2.30480734899930E-03  -2.30114259569747E-03
      3.50799185087891E-31
      6.50000000000000E-01
      1.30000000000000E+01   1.29999997614749E+01   0.00000000000000E+00   0.00000000000000E+00   1.85654191570961E-03
      5.28709818206064E-04   2.38525173391568E-03  -1.76188285884212E-27   0.00000000000000E+00   2.38525173391567E-07
      0.00000000000000E+00   0.00000000000000E+00   4.82938599545491E-06  -2.39008111991113E-03  -2.38525173391567E-03
     -2.75800738620825E-30
      6.60000000000000E-01
      1.32000000000000E+01   1.31999997528932E+01   0.00000000000000E+00   0.00000000000000E+00   1.93954656728654E-03
      5.31521527128264E-04   2.47106809441481E-03   1.97216882551688E-27   0.00000000000000E+00   2.47106809441481E-07
      0.00000000000000E+00   0.00000000000000E+00   6.26309935505539E-06  -2.47733119376986E-03  -2.47106809441480E-03
      1.75399592543946E-30
      6.70000000000000E-01
      1.34000000000000E+01   1.33999997441406E+01   0.00000000000000E+00   0.00000000000000E+00   2.02440241428531E-03
      5.34190333124325E-04   2.55859274740964E-03  -1.45995362919406E-27   0.00000000000000E+00   2.55859274740964E-07
      0.00000000000000E+00   0.00000000000000E+00   8.00526293283010E-06  -2.56659801034247E-03  -2.55859274740964E-03
     -2.45559429561524E-30
      6.80000000000000E-01
      1.36000000000000E+01   1.35999997352174E+01   0.00000000000000E+00   0.00000000000000E+00   2.11110206347287E-03
      5.36723936535286E-04   2.64782600000816E-03  -1.44843773870428E-27   0.00000000000000E+00   2.64782600000815E-07
      0.00000000000000E+00   0.00000000000000E+00   1.00974779443672E-05  -2.65792347795252E-03  -2.64782600000815E-03
     -2.14108468139851E-30
      6.90000000000000E-01
      1.38000000000000E+01   1.37999997261233E+01   0.00000000000000E+00   0.00000000000000E+00   2.19963766186447E-03
      5.39129557556638E-04   2.73876721942111E-03   5.67614855214731E-27   0.00000000000000E+00   2.73876721942111E-07
      0.00000000000000E+00   0.00000000000000E+00   1.25833924744574E-05  -2.75135061189556E-03  -2.73876721942110E-03
      4.83860944948816E-31
      7.00000000000000E-01
      1.40000000000000E+01   1.39999997168586E+01   0.00000000000000E+00   0.00000000000000E+00   2.29000063146806E-03
      5.41413976189629E-04   2.83141460765769E-03   4.34945022719215E-27   0.00000000000000E+00   2.83141460765769E-07
      0.00000000000000E+00   0.00000000000000E+00   1.55085115069833E-05  -2.84692311916468E-03  -2.83141460765769E-03
     -2.68542824446593E-30
      7.10000000000000E-01
      1.42000000000000E+01   1.41999997074235E+01   0.00000000000000E+00   0.00000000000000E+00   2.38218136921096E-03
      5.43583571042211E-04   2.92576494025317E-03   3.44315448425577E-28   0.00000000000000E+00   2.92576494025318E-07
      0.00000000000000E+00   0.00000000000000E+00   1.89200025994931E-05  -2.94468494285267E-03  -2.92576494025317E-03
      6.29019228433460E-31
      7.20000000000000E-01