DF-ISE text

Info {
  version   = 1.0
  type      = xyplot
  datasets  = [
    "time" "v(g)" "v(b)" ]
  functions = [
    Time Voltage Voltage ]
}

Data {
      1.00000000000000E-02   1.20000000000000E-02   0.00000000000000E+00
      2.00000000000000E-02   2.40000000000000E-02   0.00000000000000E+00
      3.00000000000000E-02   3.60000000000000E-02   0.00000000000000E+00
      4.00000000000000E-02   4.80000000000000E-02   0.00000000000000E+00
      5.00000000000000E-02   6.00000000000000E-02   0.00000000000000E+00
      6.00000000000000E-02   7.20000000000000E-02   0.00000000000000E+00
      7.00000000000000E-02   8.40000000000000E-02   0.00000000000000E+00
      8.00000000000000E-02   9.60000000000000E-02   0.00000000000000E+00
      9.00000000000000E-02   1.08000000000000E-01   0.00000000000000E+00
      1.00000000000000E-01   1.20000000000000E-01   0.00000000000000E+00
      1.10000000000000E-01   1.32000000000000E-01   0.00000000000000E+00
      1.20000000000000E-01   1.44000000000000E-01   0.00000000000000E+00
      1.30000000000000E-01   1.56000000000000E-01   0.00000000000000E+00
      1.40000000000000E-01   1.68000000000000E-01   0.00000000000000E+00
      1.50000000000000E-01   1.80000000000000E-01   0.00000000000000E+00
      1.60000000000000E-01   1.92000000000000E-01   0.00000000000000E+00
      1.70000000000000E-01   2.04000000000000E-01   0.00000000000000E+00
      1.80000000000000E-01   2.16000000000000E-01   0.00000000000000E+00
      1.90000000000000E-01   2.28000000000000E-01   0.00000000000000E+00
      2.00000000000000E-01   2.40000000000000E-01   0.00000000000000E+00
      2.10000000000000E-01   2.52000000000000E-01   0.00000000000000E+00
      2.20000000000000E-01   2.64000000000000E-01   0.00000000000000E+00
      2.30000000000000E-01   2.76000000000000E-01   0.00000000000000E+00
      2.40000000000000E-01   2.88000000000000E-01   0.00000000000000E+00
      2.50000000000000E-01   3.00000000000000E-01   0.00000000000000E+00
      2.60000000000000E-01   3.12000000000000E-01   0.00000000000000E+00
      2.70000000000000E-01   3.24000000000000E-01   0.00000000000000E+00
      2.80000000000000E-01   3.36000000000000E-01   0.00000000000000E+00
      2.90000000000000E-01   3.48000000000000E-01   0.00000000000000E+00
      3.00000000000000E-01   3.60000000000000E-01   0.00000000000000E+00
      3.10000000000000E-01   3.72000000000000E-01   0.00000000000000E+00
      3.20000000000000E-01   3.84000000000000E-01   0.00000000000000E+00
      3.30000000000000E-01   3.96000000000000E-01   0.00000000000000E+00
      3.40000000000000E-01   4.08000000000000E-01   0.00000000000000E+00
      3.50000000000000E-01   4.20000000000000E-01   0.00000000000000E+00
      3.60000000000000E-01   4.32000000000000E-01   0.00000000000000E+00
      3.70000000000000E-01   4.44000000000000E-01   0.00000000000000E+00
      3.80000000000000E-01   4.56000000000000E-01   0.00000000000000E+00
      3.90000000000000E-01   4.68000000000000E-01   0.00000000000000E+00
      4.00000000000000E-01   4.80000000000000E-01   0.00000000000000E+00
      4.10000000000000E-01   4.92000000000000E-01   0.00000000000000E+00
      4.20000000000000E-01   5.04000000000000E-01   0.00000000000000E+00
      4.30000000000000E-01   5.16000000000000E-01   0.00000000000000E+00
      4.40000000000000E-01   5.28000000000000E-01   0.00000000000000E+00
      4.50000000000000E-01   5.40000000000000E-01   0.00000000000000E+00
      4.60000000000000E-01   5.52000000000000E-01   0.00000000000000E+00
      4.70000000000000E-01   5.64000000000000E-01   0.00000000000000E+00
      4.80000000000000E-01   5.76000000000000E-01   0.00000000000000E+00
      4.90000000000000E-01   5.88000000000000E-01   0.00000000000000E+00
      5.00000000000000E-01   6.00000000000000E-01   0.00000000000000E+00
      5.10000000000000E-01   6.12000000000000E-01   0.00000000000000E+00
      5.20000000000000E-01   6.24000000000000E-01   0.00000000000000E+00
      5.30000000000000E-01   6.36000000000000E-01   0.00000000000000E+00
      5.40000000000000E-01   6.48000000000000E-01   0.00000000000000E+00
      5.50000000000000E-01   6.60000000000000E-01   0.00000000000000E+00
      5.60000000000000E-01   6.72000000000000E-01   0.00000000000000E+00
      5.70000000000000E-01   6.84000000000000E-01   0.00000000000000E+00
      5.80000000000000E-01   6.96000000000000E-01   0.00000000000000E+00
      5.90000000000000E-01   7.08000000000000E-01   0.00000000000000E+00
      6.00000000000000E-01   7.20000000000000E-01   0.00000000000000E+00
      6.10000000000000E-01   7.32000000000000E-01   0.00000000000000E+00
      6.20000000000000E-01   7.44000000000000E-01   0.00000000000000E+00
      6.30000000000000E-01   7.56000000000000E-01   0.00000000000000E+00
      6.40000000000000E-01   7.68000000000000E-01   0.00000000000000E+00
      6.50000000000000E-01   7.80000000000000E-01   0.00000000000000E+00
      6.60000000000000E-01   7.92000000000000E-01   0.00000000000000E+00
      6.70000000000000E-01   8.04000000000000E-01   0.00000000000000E+00
      6.80000000000000E-01   8.16000000000000E-01   0.00000000000000E+00
      6.90000000000000E-01   8.28000000000000E-01   0.00000000000000E+00
      7.00000000000000E-01   8.40000000000001E-01   0.00000000000000E+00
      7.10000000000000E-01   8.52000000000001E-01   0.00000000000000E+00
      7.20000000000000E-01   8.64000000000000E-01   0.00000000000000E+00
      7.30000000000000E-01   8.76000000000000E-01   0.00000000000000E+00
      7.40000000000000E-01   8.88000000000001E-01   0.00000000000000E+00
      7.50000000000000E-01   9.00000000000001E-01   0.00000000000000E+00
      7.60000000000000E-01   9.12000000000000E-01   0.00000000000000E+00
      7.70000000000000E-01   9.24000000000000E-01   0.00000000000000E+00
      7.80000000000000E-01   9.36000000000001E-01   0.00000000000000E+00
      7.90000000000000E-01   9.48000000000001E-01   0.00000000000000E+00
      8.00000000000000E-01   9.60000000000001E-01   0.00000000000000E+00
      8.10000000000000E-01   9.72000000000001E-01   0.00000000000000E+00
      8.20000000000001E-01   9.84000000000001E-01   0.00000000000000E+00
      8.30000000000001E-01   9.96000000000001E-01   0.00000000000000E+00
      8.40000000000001E-01   1.00800000000000E+00   0.00000000000000E+00
      8.50000000000001E-01   1.02000000000000E+00   0.00000000000000E+00
      8.60000000000001E-01   1.03200000000000E+00   0.00000000000000E+00
      8.70000000000001E-01   1.04400000000000E+00   0.00000000000000E+00
      8.80000000000001E-01   1.05600000000000E+00   0.00000000000000E+00
      8.90000000000001E-01   1.06800000000000E+00   0.00000000000000E+00
      9.00000000000001E-01   1.08000000000000E+00   0.00000000000000E+00
      9.10000000000001E-01   1.09200000000000E+00   0.00000000000000E+00
      9.20000000000001E-01   1.10400000000000E+00   0.00000000000000E+00
      9.30000000000001E-01   1.11600000000000E+00   0.00000000000000E+00
      9.40000000000001E-01   1.12800000000000E+00   0.00000000000000E+00
      9.50000000000001E-01   1.14000000000000E+00   0.00000000000000E+00
      9.60000000000001E-01   1.15200000000000E+00   0.00000000000000E+00
      9.70000000000001E-01   1.16400000000000E+00   0.00000000000000E+00
      9.80000000000001E-01   1.17600000000000E+00   0.00000000000000E+00
      9.90000000000001E-01   1.18800000000000E+00   0.00000000000000E+00
      1.00000000000000E+00   1.20000000000000E+00   0.00000000000000E+00
}
