DF-ISE text

Info {
  version   = 1.0
  type      = xyplot
  datasets  = [
    "time"
    "ntype OuterVoltage" "ntype InnerVoltage" "ntype QuasiFermiPotential" "ntype DisplacementCurrent" "ntype eCurrent"
    "ntype hCurrent" "ntype TotalCurrent" "ntype Charge" "ptype OuterVoltage" "ptype InnerVoltage"
    "ptype QuasiFermiPotential" "ptype DisplacementCurrent" "ptype eCurrent" "ptype hCurrent" "ptype TotalCurrent"
    "ptype Charge" ]
  functions = [
    Time
    OuterVoltage InnerVoltage QuasiFermiPotential DisplacementCurrent eCurrent
    hCurrent TotalCurrent Charge OuterVoltage InnerVoltage
    QuasiFermiPotential DisplacementCurrent eCurrent hCurrent TotalCurrent
    Charge ]
}

Data {
      0.00000000000000E+00
      0.00000000000000E+00   0.00000000000000E+00   0.00000000000000E+00   0.00000000000000E+00   8.02033282320111E-10
     -8.02033282320157E-10  -4.60388872220999E-23  -1.01166648113261E-27   0.00000000000000E+00   0.00000000000000E+00
      0.00000000000000E+00   0.00000000000000E+00  -1.51328098395374E-24  -1.22097836486376E-18  -1.22097987814474E-18
      4.74183726049839E-30
      0.00000000000000E+00
      0.00000000000000E+00   0.00000000000000E+00   0.00000000000000E+00   0.00000000000000E+00   7.16204020497818E-10
     -6.12430881687046E-10   1.03773138810772E-10   1.46442121558303E-28   0.00000000000000E+00   0.00000000000000E+00
      0.00000000000000E+00   0.00000000000000E+00   2.79318911752057E-11  -9.99195880144744E-18   2.79318811832469E-11
     -1.74189940181574E-30
      0.00000000000000E+00
      0.00000000000000E+00   0.00000000000000E+00   0.00000000000000E+00   0.00000000000000E+00   7.06558921815339E-10
     -3.59091886268635E-10   3.47467035546704E-10  -7.19749770897720E-28   0.00000000000000E+00   0.00000000000000E+00
      0.00000000000000E+00   0.00000000000000E+00   2.79318887100026E-11  -3.75398923760613E-10  -3.47467035050611E-10
     -5.12892601645745E-30
      5.00000000000000E-03
      7.50000000000000E-02   7.50000000000000E-02   0.00000000000000E+00   0.00000000000000E+00   1.97553126298277E-09
     -2.22303201177902E-10   1.75322806180487E-09  -6.91639529086192E-29   0.00000000000000E+00   0.00000000000000E+00
      0.00000000000000E+00   0.00000000000000E+00   2.79149361661827E-11  -1.78114299818818E-09  -1.75322806202200E-09
     -1.16126626787716E-29
      1.33333333333333E-02
      2.00000000000000E-01   2.00000000000000E-01   0.00000000000000E+00   0.00000000000000E+00   3.31430338358225E-09
     -8.43501351112243E-11   3.22995324847103E-09   2.95246278362319E-28   0.00000000000000E+00   0.00000000000000E+00
      0.00000000000000E+00   0.00000000000000E+00   2.79055407765262E-11  -3.25785878915854E-09  -3.22995324838202E-09
      3.19348223666218E-30
      2.33333333333333E-02
      3.50000000000000E-01   3.50000000000000E-01   0.00000000000000E+00   0.00000000000000E+00   4.74354157879156E-09
      6.67678537179196E-11   4.81030943250948E-09   1.00326941464775E-27   0.00000000000000E+00   0.00000000000000E+00
      0.00000000000000E+00   0.00000000000000E+00   2.78974806474595E-11  -4.83820691308540E-09  -4.81030943243794E-09
     -2.90316566969289E-30
      3.33333333333333E-02
      5.00000000000000E-01   5.00000000000000E-01   0.00000000000000E+00   0.00000000000000E+00   6.13963080894600E-09
      2.58322378740620E-10   6.39795318768662E-09   4.49814523177128E-28   0.00000000000000E+00   0.00000000000000E+00
      0.00000000000000E+00   0.00000000000000E+00   2.78913066337786E-11  -6.42584449440375E-09  -6.39795318776997E-09
      5.32247039443697E-30
      4.33333333333333E-02
      6.50000000000000E-01   6.50000000000000E-01   0.00000000000000E+00   0.00000000000000E+00   7.49264397088953E-09
      7.22100554460874E-10   8.21474452535040E-09  -3.54449159884804E-27   0.00000000000000E+00   0.00000000000000E+00
      0.00000000000000E+00   0.00000000000000E+00   2.78864353475349E-11  -8.24263096068461E-09  -8.21474452533708E-09
      1.34513342695771E-29
      5.33333333333333E-02
      8.00000000000000E-01   8.00000000000000E-01   0.00000000000000E+00   0.00000000000000E+00   8.76267318529731E-09
      2.75775625259150E-09   1.15204294378888E-08  -6.30606897159074E-28   0.00000000000000E+00   0.00000000000000E+00
      0.00000000000000E+00   0.00000000000000E+00   2.78825457339784E-11  -1.15483119835931E-08  -1.15204294378591E-08
      1.23868401906897E-29
      6.33333333333333E-02
      9.50000000000000E-01   9.50000000000000E-01   0.00000000000000E+00   0.00000000000000E+00   9.96652689586757E-09
      1.29747898675669E-08   2.29413167634345E-08  -1.96390085162006E-28   0.00000000000000E+00   0.00000000000000E+00
      0.00000000000000E+00   0.00000000000000E+00   2.78796932787339E-11  -2.29691964566660E-08  -2.29413167633873E-08
      5.51601477241650E-30
      7.33333333333333E-02
      1.10000000000000E+00   1.10000000000000E+00   0.00000000000000E+00   0.00000000000000E+00   1.18469085502983E-08
      6.15821385693230E-08   7.34290471196213E-08   4.96102626856021E-28   0.00000000000000E+00   0.00000000000000E+00
      0.00000000000000E+00   0.00000000000000E+00   2.78790787323336E-11  -7.34569261983194E-08  -7.34290471195870E-08
      1.05481685998842E-29
      8.33333333333333E-02
      1.25000000000000E+00   1.25000000000000E+00   0.00000000000000E+00   0.00000000000000E+00   1.84891132780989E-08
      2.65982758302259E-07   2.84471871580358E-07   7.36076486634292E-28   0.00000000000000E+00   0.00000000000000E+00
      0.00000000000000E+00   0.00000000000000E+00   2.78858898354207E-11  -2.84499757470208E-07  -2.84471871580373E-07
     -1.06449407888739E-30
      9.33333333333333E-02
      1.40000000000000E+00   1.40000000000000E+00   0.00000000000000E+00   0.00000000000000E+00   4.83204511573595E-08
      1.00210545696736E-06   1.05042590812472E-06   1.45301627289586E-27   0.00000000000000E+00   0.00000000000000E+00
      0.00000000000000E+00   0.00000000000000E+00   2.79170074772351E-11  -1.05045382513219E-06  -1.05042590812471E-06
     -1.43222839704849E-29
      1.03333333333333E-01
      1.55000000000000E+00   1.55000000000000E+00   0.00000000000000E+00   0.00000000000000E+00   1.76347738219633E-07
      3.24664101240109E-06   3.42298875062073E-06   1.15309506616933E-27   0.00000000000000E+00   0.00000000000000E+00
      0.00000000000000E+00   0.00000000000000E+00   2.80166031455899E-11  -3.42301676722386E-06  -3.42298875062071E-06
     -2.86445679409699E-29
      1.13333333333333E-01
      1.70000000000000E+00   1.70000000000000E+00   0.00000000000000E+00   0.00000000000000E+00   6.27239557230048E-07
      8.99474527932542E-06   9.62198483655547E-06   2.18919255585005E-27   0.00000000000000E+00   0.00000000000000E+00
      0.00000000000000E+00   0.00000000000000E+00   2.82726853940214E-11  -9.62201310924089E-06  -9.62198483655549E-06
      1.75157662071471E-29
      1.23333333333333E-01
      1.85000000000000E+00   1.85000000000000E+00   0.00000000000000E+00   0.00000000000000E+00   1.90983670190878E-06
      2.12649301071822E-05   2.31747668090910E-05  -1.94427424204058E-27   0.00000000000000E+00   0.00000000000000E+00
      0.00000000000000E+00   0.00000000000000E+00   2.88019872710012E-11  -2.31747956110783E-05  -2.31747668090910E-05
      2.67091241611746E-29
      1.33333333333333E-01
      2.00000000000000E+00   2.00000000000000E+00   0.00000000000000E+00   0.00000000000000E+00   4.89070755731582E-06
      4.30907191525476E-05   4.79814267098634E-05   2.10813375104749E-27   0.00000000000000E+00   0.00000000000000E+00
      0.00000000000000E+00   0.00000000000000E+00   2.96680879301979E-11  -4.79814563779512E-05  -4.79814267098633E-05
     -4.83860944948816E-31
      1.43333333333333E-01
      2.15000000000000E+00   2.15000000000000E+00   0.00000000000000E+00   0.00000000000000E+00   1.06791179673206E-05
      7.59235203282117E-05   8.66026382955323E-05   1.14809315365093E-27   0.00000000000000E+00   0.00000000000000E+00
      0.00000000000000E+00   0.00000000000000E+00   3.07884192614745E-11  -8.66026690839519E-05  -8.66026382955326E-05
      1.16126626787716E-29
      1.53333333333333E-01
      2.30000000000000E+00   2.30000000000000E+00   0.00000000000000E+00   0.00000000000000E+00   2.03848939656351E-05
      1.18889719435982E-04   1.39274613401617E-04   1.93072613558201E-27   0.00000000000000E+00   0.00000000000000E+00
      0.00000000000000E+00   0.00000000000000E+00   3.19509098963695E-11  -1.39274645352526E-04  -1.39274613401617E-04
     -1.71286774511881E-29
      1.63333333333333E-01
      2.45000000000000E+00   2.45000000000000E+00   0.00000000000000E+00   0.00000000000000E+00   3.49496896398476E-05
      1.69403852078304E-04   2.04353541718151E-04   3.73056788555537E-28   0.00000000000000E+00   0.00000000000000E+00
      0.00000000000000E+00   0.00000000000000E+00   3.29289379384296E-11  -2.04353574647090E-04  -2.04353541718152E-04
      2.19672869006762E-29
      1.73333333333333E-01
      2.60000000000000E+00   2.60000000000000E+00   0.00000000000000E+00   0.00000000000000E+00   5.51268013850462E-05
      2.24295568679247E-04   2.79422370064294E-04   1.32072264228504E-27   0.00000000000000E+00   0.00000000000000E+00
      0.00000000000000E+00   0.00000000000000E+00   3.35831439605940E-11  -2.79422403647439E-04  -2.79422370064295E-04
     -5.32247039443697E-30
      1.83333333333333E-01
      2.75000000000000E+00   2.75000000000000E+00   0.00000000000000E+00   0.00000000000000E+00   8.15378315665375E-05
      2.80646273679873E-04   3.62184105246410E-04  -4.96666324856886E-27   0.00000000000000E+00   0.00000000000000E+00
      0.00000000000000E+00   0.00000000000000E+00   3.38942392048756E-11  -3.62184139140650E-04  -3.62184105246411E-04
      8.99981357604797E-30
      1.93333333333333E-01
      2.90000000000000E+00   2.90000000000000E+00   0.00000000000000E+00   0.00000000000000E+00   1.14708758995230E-04
      3.36029337945231E-04   4.50738096940461E-04   2.06826360918371E-27   0.00000000000000E+00   0.00000000000000E+00
      0.00000000000000E+00   0.00000000000000E+00   3.39145685771476E-11  -4.50738130855030E-04  -4.50738096940462E-04
      1.27739289466487E-29
      2.03333333333333E-01
      3.05000000000000E+00   3.05000000000000E+00   0.00000000000000E+00   0.00000000000000E+00   1.55172103931481E-04
      3.88732211856204E-04   5.43904315787685E-04  -9.59351095550017E-28   0.00000000000000E+00   0.00000000000000E+00
      0.00000000000000E+00   0.00000000000000E+00   3.36970308880120E-11  -5.43904349484717E-04  -5.43904315787686E-04
      1.31610177026078E-29
      2.13333333333333E-01
      3.20000000000000E+00   3.20000000000000E+00   0.00000000000000E+00   0.00000000000000E+00   2.03561555586226E-04
      4.37852123374028E-04   6.41413678960254E-04   5.67472116235971E-28   0.00000000000000E+00   0.00000000000000E+00
      0.00000000000000E+00   0.00000000000000E+00   3.32682400992562E-11  -6.41413712228495E-04  -6.41413678960255E-04
      8.51595263109916E-30
      2.23333333333333E-01
      3.35000000000000E+00   3.35000000000000E+00   0.00000000000000E+00   0.00000000000000E+00   2.60622442395282E-04
      4.83052780962470E-04   7.43675223357753E-04   1.00730171519444E-27   0.00000000000000E+00   0.00000000000000E+00
      0.00000000000000E+00   0.00000000000000E+00   3.26359868109808E-11  -7.43675255993743E-04  -7.43675223357756E-04
      1.54835502383621E-30
      2.33333333333333E-01
      3.50000000000000E+00   3.50000000000000E+00   0.00000000000000E+00   0.00000000000000E+00   3.27204751525606E-04
      5.24341759038776E-04   8.51546510564382E-04   1.31755335309563E-28   0.00000000000000E+00   0.00000000000000E+00
      0.00000000000000E+00   0.00000000000000E+00   3.17979291901903E-11  -8.51546542362305E-04  -8.51546510564376E-04
     -1.15158904897818E-29
      2.43333333333333E-01
      3.65000000000000E+00   3.65000000000000E+00   0.00000000000000E+00   0.00000000000000E+00   4.04239522839997E-04
      5.61932424314638E-04   9.66171947154635E-04  -4.41227957089376E-27   0.00000000000000E+00   0.00000000000000E+00
      0.00000000000000E+00   0.00000000000000E+00   3.07446782162600E-11  -9.66171977899313E-04  -9.66171947154634E-04
     -2.14834259557274E-29
      2.53333333333333E-01
      3.80000000000000E+00   3.80000000000000E+00   0.00000000000000E+00   0.00000000000000E+00   4.92718609292982E-04
      5.96144812491737E-04   1.08886342178472E-03   8.47966306022800E-29   0.00000000000000E+00   0.00000000000000E+00
      0.00000000000000E+00   0.00000000000000E+00   2.94608231020363E-11  -1.08886345124554E-03  -1.08886342178472E-03
     -9.87076327695584E-30
      2.63333333333333E-01
      3.95000000000000E+00   3.95000000000000E+00   0.00000000000000E+00   0.00000000000000E+00   5.93677763803713E-04
      6.27334949333739E-04   1.22101271313745E-03  -1.55512907706549E-27   0.00000000000000E+00   0.00000000000000E+00
      0.00000000000000E+00   0.00000000000000E+00   2.79257705228382E-11  -1.22101274106322E-03  -1.22101271313745E-03
      3.16445057996525E-29
      2.73333333333333E-01
      4.10000000000000E+00   4.10000000000000E+00   0.00000000000000E+00   0.00000000000000E+00   7.08177763083354E-04
      6.55851391657945E-04   1.36402915474130E-03  -1.26619151378931E-27   0.00000000000000E+00   0.00000000000000E+00
      0.00000000000000E+00   0.00000000000000E+00   2.61146866259427E-11  -1.36402918085598E-03  -1.36402915474129E-03
      9.29013014301726E-30
      2.83333333333333E-01
      4.25000000000000E+00   4.25000000000000E+00   0.00000000000000E+00   0.00000000000000E+00   8.37283489035892E-04
      6.82012281649290E-04   1.51929577068518E-03  -4.84618187327661E-27   0.00000000000000E+00   0.00000000000000E+00
      0.00000000000000E+00   0.00000000000000E+00   2.39994645094638E-11  -1.51929579468463E-03  -1.51929577068517E-03
      1.12255739228125E-29
      2.93333333333333E-01
      4.40000000000000E+00   4.40000000000000E+00   0.00000000000000E+00   0.00000000000000E+00   9.82039810281789E-04
      7.06095980206356E-04   1.68813579048815E-03   4.07115760470484E-27   0.00000000000000E+00   0.00000000000000E+00
      0.00000000000000E+00   0.00000000000000E+00   2.15497037390429E-11  -1.68813581203784E-03  -1.68813579048813E-03
     -1.29674733246283E-29
      3.03333333333333E-01
      4.55000000000000E+00   4.55000000000000E+00   0.00000000000000E+00   0.00000000000000E+00   1.14344479159696E-03
      7.28339906902792E-04   1.87178469849975E-03  -1.77625352890710E-28   0.00000000000000E+00   0.00000000000000E+00
      0.00000000000000E+00   0.00000000000000E+00   1.87337723693864E-11  -1.87178471723353E-03  -1.87178469849976E-03
      3.87088755959053E-30
      3.13333333333333E-01
      4.70000000000000E+00   4.70000000000000E+00   0.00000000000000E+00   0.00000000000000E+00   1.32242654673118E-03
      7.48943687020728E-04   2.07137023375190E-03   3.11289519628096E-27   0.00000000000000E+00   0.00000000000000E+00
      0.00000000000000E+00   0.00000000000000E+00   1.55200164942967E-11  -2.07137024927192E-03  -2.07137023375190E-03
     -1.27739289466487E-29
      3.23333333333333E-01
      4.85000000000000E+00   4.85000000000000E+00   0.00000000000000E+00   0.00000000000000E+00   1.51982999377885E-03
      7.68074088370366E-04   2.28790408214922E-03  -4.87985859504504E-27   0.00000000000000E+00   0.00000000000000E+00
      0.00000000000000E+00   0.00000000000000E+00   1.18780260849798E-11  -2.28790409402725E-03  -2.28790408214922E-03
      1.17094348677613E-29
      3.33333333333333E-01
      5.00000000000000E+00   5.00000000000000E+00   0.00000000000000E+00   0.00000000000000E+00   1.73641300996478E-03
      7.85870402602449E-04   2.52228341256723E-03  -1.05699423424069E-27   0.00000000000000E+00   0.00000000000000E+00
      0.00000000000000E+00   0.00000000000000E+00   7.77998338183153E-12  -2.52228342034723E-03  -2.52228341256724E-03
      6.29019228433460E-30
      3.43333333333333E-01
      5.15000000000000E+00   5.15000000000000E+00   0.00000000000000E+00   0.00000000000000E+00   1.97284753145128E-03
      8.02449610667108E-04   2.77529714211839E-03  -7.32057416660311E-27   0.00000000000000E+00   0.00000000000000E+00
      0.00000000000000E+00   0.00000000000000E+00   3.20207619345723E-12  -2.77529714532045E-03  -2.77529714211837E-03
      1.04513964108944E-29
      3.53333333333333E-01
      5.30000000000000E+00   5.30000000000000E+00   0.00000000000000E+00   0.00000000000000E+00   2.22972207068702E-03
      8.17910986663117E-04   3.04763305735013E-03   5.25811688875878E-27   0.00000000000000E+00   0.00000000000000E+00
      0.00000000000000E+00   0.00000000000000E+00  -1.87409713312631E-12  -3.04763305547603E-03  -3.04763305735013E-03
      9.29013014301726E-30
      3.63333333333334E-01
      5.45000000000000E+00   5.45000000000000E+00   0.00000000000000E+00   0.00000000000000E+00   2.50754400328198E-03
      8.32339977416217E-04   3.33988398069820E-03   7.96410922338503E-28   0.00000000000000E+00   0.00000000000000E+00
      0.00000000000000E+00   0.00000000000000E+00  -7.46024013346050E-12  -3.33988397323795E-03  -3.33988398069819E-03
     -3.59024821152021E-29
      3.73333333333334E-01
      5.60000000000000E+00   5.60000000000000E+00   0.00000000000000E+00   0.00000000000000E+00   2.80674088770779E-03
      8.45811333004396E-04   3.65255222071218E-03   3.43313856269533E-27   0.00000000000000E+00   0.00000000000000E+00
      0.00000000000000E+00   0.00000000000000E+00  -1.35602774664573E-11  -3.65255220715189E-03  -3.65255222071217E-03
      1.64512721282597E-29
      3.83333333333334E-01
      5.75000000000000E+00   5.75000000000000E+00   0.00000000000000E+00   0.00000000000000E+00   3.12766040903250E-03
      8.58391553091355E-04   3.98605196212385E-03  -3.24888431485882E-28   0.00000000000000E+00   0.00000000000000E+00
      0.00000000000000E+00   0.00000000000000E+00  -2.01695467107086E-11  -3.98605194195430E-03  -3.98605196212384E-03
     -1.74189940181574E-29
      3.93333333333334E-01
      5.90000000000000E+00   5.90000000000000E+00   0.00000000000000E+00   0.00000000000000E+00   3.47056885518779E-03
      8.70140754133579E-04   4.34070960932137E-03  -3.26574686879029E-27   0.00000000000000E+00   0.00000000000000E+00
      0.00000000000000E+00   0.00000000000000E+00  -2.72743888774338E-11  -4.34070958204698E-03  -4.34070960932137E-03
      4.34507128564036E-29
      4.03333333333334E-01
      6.05000000000000E+00   6.05000000000000E+00   0.00000000000000E+00   0.00000000000000E+00   3.83564838790594E-03
      8.81114068575599E-04   4.71676245648154E-03  -3.43546109523109E-27   0.00000000000000E+00   0.00000000000000E+00
      0.00000000000000E+00   0.00000000000000E+00  -3.48524474714577E-11  -4.71676242162908E-03  -4.71676245648153E-03
      1.74189940181574E-30
      4.13333333333334E-01
      6.20000000000000E+00   6.20000000000000E+00   0.00000000000000E+00   0.00000000000000E+00   4.22299366672464E-03
      8.91362675573834E-04   5.11435634229847E-03   1.32423063413592E-27   0.00000000000000E+00   0.00000000000000E+00
      0.00000000000000E+00   0.00000000000000E+00  -4.28741837379566E-11  -5.11435629942426E-03  -5.11435634229844E-03
     -1.65480443172495E-29
      4.23333333333334E-01
      6.35000000000000E+00   6.35000000000000E+00   0.00000000000000E+00   0.00000000000000E+00   4.63260859278671E-03
      9.00934544893575E-04   5.53354313768028E-03   3.60217538381320E-27   0.00000000000000E+00   0.00000000000000E+00
      0.00000000000000E+00   0.00000000000000E+00  -5.13060805884774E-11  -5.53354308637420E-03  -5.53354313768028E-03
     -3.19348223666218E-30
      4.33333333333334E-01
      6.50000000000000E+00   6.50000000000000E+00   0.00000000000000E+00   0.00000000000000E+00   5.06440404673355E-03
      9.09874957907309E-04   5.97427900464086E-03   1.75544750827430E-28   0.00000000000000E+00   0.00000000000000E+00
      0.00000000000000E+00   0.00000000000000E+00  -6.01154819507675E-11  -5.97427894452536E-03  -5.97427900464084E-03
      2.22576034676455E-30
      4.43333333333334E-01
      6.65000000000000E+00   6.65000000000000E+00   0.00000000000000E+00   0.00000000000000E+00   5.51819743549930E-03
      9.18226855812602E-04   6.43642429131190E-03   8.78766474473516E-27   0.00000000000000E+00   0.00000000000000E+00
      0.00000000000000E+00   0.00000000000000E+00  -6.92761021636329E-11  -6.43642422203576E-03  -6.43642429131186E-03
     -3.96765974858029E-29
      4.53333333333334E-01
      6.80000000000000E+00   6.80000000000000E+00   0.00000000000000E+00   0.00000000000000E+00   5.99371464681499E-03
      9.26031055797921E-04   6.91974570261291E-03  -2.96979332181235E-27   0.00000000000000E+00   0.00000000000000E+00
      0.00000000000000E+00   0.00000000000000E+00  -7.87724626974597E-11  -6.91974562384045E-03  -6.91974570261291E-03
      1.84834880970448E-29
      4.63333333333334E-01
      6.95000000000000E+00   6.95000000000000E+00   0.00000000000000E+00   0.00000000000000E+00   6.49059473016004E-03
      9.33326368317738E-04   7.42392109847778E-03  -1.87169510029826E-27   0.00000000000000E+00   0.00000000000000E+00
      0.00000000000000E+00   0.00000000000000E+00  -8.85985202416377E-11  -7.42392100987928E-03  -7.42392109847780E-03
     -5.22569820544721E-30
      4.73333333333334E-01
      7.10000000000000E+00   7.10000000000000E+00   0.00000000000000E+00   0.00000000000000E+00   7.00839724700944E-03
      9.40149645769809E-04   7.94854689277924E-03  -3.30012518892890E-27   0.00000000000000E+00   0.00000000000000E+00
      0.00000000000000E+00   0.00000000000000E+00  -9.82826437115503E-11  -7.94854679449656E-03  -7.94854689277921E-03
     -3.72572927610588E-29
      4.83333333333334E-01
      7.25000000000000E+00   7.25000000000000E+00   0.00000000000000E+00   0.00000000000000E+00   7.54661208075286E-03
      9.46535785517287E-04   8.49314786627015E-03  -6.59066993114782E-27   0.00000000000000E+00   0.00000000000000E+00
      0.00000000000000E+00   0.00000000000000E+00  -1.07854707145145E-10  -8.49314775841543E-03  -8.49314786627014E-03
      2.89348845079392E-29
      4.93333333333334E-01
      7.40000000000000E+00   7.40000000000000E+00   0.00000000000000E+00   0.00000000000000E+00   8.10467120555537E-03
      9.52517708608205E-04   9.05718891416357E-03   5.18164266640962E-27   0.00000000000000E+00   0.00000000000000E+00
      0.00000000000000E+00   0.00000000000000E+00   1.04626622340605E-09  -9.05718996042978E-03  -9.05718891416355E-03
      5.51601477241650E-30
      5.03333333333334E-01
      7.55000000000000E+00   7.55000000000000E+00   0.00000000000000E+00   0.00000000000000E+00   8.68196165502342E-03
      9.58126330045100E-04   9.64008798506852E-03  -2.77895856512453E-27   0.00000000000000E+00   0.00000000000000E+00
      0.00000000000000E+00   0.00000000000000E+00   7.32743912198277E-08  -9.64016125945972E-03  -9.64008798506850E-03
      1.10320295448330E-29
      5.13333333333334E-01
      7.70000000000000E+00   7.70000000000000E+00   0.00000000000000E+00   0.00000000000000E+00   9.27783838860023E-03
      9.63390530567357E-04   1.02412289191676E-02  -8.15922614943564E-27   0.00000000000000E+00   0.00000000000000E+00
      0.00000000000000E+00   0.00000000000000E+00   8.24230729803151E-07  -1.02420531498974E-02  -1.02412289191676E-02
      1.54835502383621E-30
      5.23333333333334E-01
      7.85000000000000E+00   7.85000000000000E+00   0.00000000000000E+00   0.00000000000000E+00   9.89163689243665E-03
      9.68337145913068E-04   1.08599740383497E-02  -4.88747940492799E-27   0.00000000000000E+00   0.00000000000000E+00
      0.00000000000000E+00   0.00000000000000E+00   4.06615572756098E-06  -1.08640401940773E-02  -1.08599740383497E-02
     -8.99981357604797E-30
      5.33333333333334E-01
      8.00000000000001E+00   8.00000000000001E+00   0.00000000000000E+00   0.00000000000000E+00   1.05226858858984E-02
      9.72990995109069E-04   1.14956768810075E-02   1.88168682881145E-27   0.00000000000000E+00   0.00000000000000E+00
      0.00000000000000E+00   0.00000000000000E+00   1.27153220506603E-05  -1.15083922030582E-02  -1.14956768810075E-02
      6.87082541827318E-30
      5.43333333333334E-01
      8.15000000000001E+00   8.15000000000001E+00   0.00000000000000E+00   0.00000000000000E+00   1.11703207508139E-02
      9.77374921264528E-04   1.21476956720784E-02  -4.80019089045922E-27   0.00000000000000E+00   0.00000000000000E+00
      0.00000000000000E+00   0.00000000000000E+00   3.00990387513299E-05  -1.21777947108297E-02  -1.21476956720784E-02
     -3.48379880363147E-30
      5.53333333333334E-01
      8.30000000000000E+00   8.30000000000000E+00   0.00000000000000E+00   0.00000000000000E+00   1.18338941618228E-02
      9.81509855974343E-04   1.28154040177972E-02  -3.55035387660918E-27   0.00000000000000E+00   0.00000000000000E+00
      0.00000000000000E+00   0.00000000000000E+00   5.93747219021158E-05  -1.28747787396992E-02  -1.28154040177971E-02
     -3.77411537060076E-30
      5.63333333333334E-01
      8.45000000000000E+00   8.45000000000000E+00   0.00000000000000E+00   0.00000000000000E+00   1.25127844837846E-02
      9.85414896486842E-04   1.34981993802714E-02  -4.58603403622488E-28   0.00000000000000E+00   0.00000000000000E+00
      0.00000000000000E+00   0.00000000000000E+00   1.03278011546430E-04  -1.36014773918178E-02  -1.34981993802714E-02
      1.32577898915975E-29
      5.73333333333334E-01
      8.60000000000000E+00   8.60000000000000E+00   0.00000000000000E+00   0.00000000000000E+00   1.32064026480142E-02
      9.89107392614037E-04   1.41955100406283E-02   3.20608681427810E-27   0.00000000000000E+00   0.00000000000000E+00
      0.00000000000000E+00   0.00000000000000E+00   1.64099311304534E-04  -1.43596093519327E-02  -1.41955100406282E-02
     -3.77411537060076E-30
      5.83333333333334E-01
      8.75000000000001E+00   8.75000000000001E+00   0.00000000000000E+00   0.00000000000000E+00   1.39141967212824E-02
      9.92603052478028E-04   1.49067997737604E-02  -3.20744162492396E-27   0.00000000000000E+00   0.00000000000000E+00
      0.00000000000000E+00   0.00000000000000E+00   2.43758402713545E-04  -1.51505581764739E-02  -1.49067997737604E-02
      3.67734318161100E-30
      5.93333333333334E-01
      8.90000000000001E+00   8.90000000000001E+00   0.00000000000000E+00   0.00000000000000E+00   1.46356545851831E-02
      9.95916062095163E-04   1.56315706472783E-02   8.03547871276498E-28   0.00000000000000E+00   0.00000000000000E+00
      0.00000000000000E+00   0.00000000000000E+00   3.43900350615148E-04  -1.59754709978934E-02  -1.56315706472783E-02
     -8.70949700907868E-30
      6.03333333333334E-01
      9.05000000000001E+00   9.05000000000001E+00   0.00000000000000E+00   0.00000000000000E+00   1.53703045898746E-02
      9.99059217855544E-04   1.63693638077301E-02   3.24273928085797E-27   0.00000000000000E+00   0.00000000000000E+00
      0.00000000000000E+00   0.00000000000000E+00   4.65980732398480E-04  -1.68353445401286E-02  -1.63693638077301E-02
     -8.32240825311963E-30
      6.13333333333334E-01
      9.20000000000001E+00   9.20000000000001E+00   0.00000000000000E+00   0.00000000000000E+00   1.61177141149310E-02
      1.00204407001731E-03   1.71197581849483E-02   2.41374032387717E-27   0.00000000000000E+00   0.00000000000000E+00
      0.00000000000000E+00   0.00000000000000E+00   6.11331632208288E-04  -1.77310898171565E-02  -1.71197581849482E-02
     -1.53867780493723E-29
      6.23333333333334E-01
      9.35000000000001E+00   9.35000000000001E+00   0.00000000000000E+00   0.00000000000000E+00   1.68774860607394E-02
      1.00488107452555E-03   1.78823671352650E-02  -6.05068111658494E-29   0.00000000000000E+00   0.00000000000000E+00
      0.00000000000000E+00   0.00000000000000E+00   7.81209279586370E-04  -1.86635764148513E-02  -1.78823671352649E-02
      8.90304138705821E-30
      6.33333333333334E-01
      9.50000000000001E+00   9.50000000000001E+00   0.00000000000000E+00   0.00000000000000E+00   1.76492534363142E-02
      1.00757974935270E-03   1.86568331856669E-02   3.45549293835197E-28   0.00000000000000E+00   0.00000000000000E+00
      0.00000000000000E+00   0.00000000000000E+00   9.76827732093027E-04  -1.96336609177599E-02  -1.86568331856669E-02
      5.12892601645745E-30
      6.43333333333334E-01
      9.65000000000001E+00   9.65000000000001E+00   0.00000000000000E+00   0.00000000000000E+00   1.84326723897039E-02
      1.01014883019434E-03   1.94428212198982E-02   1.37451830214445E-26   0.00000000000000E+00   0.00000000000000E+00
      0.00000000000000E+00   0.00000000000000E+00   1.19938762234038E-03  -2.06422088422386E-02  -1.94428212198982E-02
     -1.18062070567511E-29
      6.53333333333334E-01
      9.80000000000001E+00   9.80000000000001E+00   0.00000000000000E+00   0.00000000000000E+00   1.92274142228823E-02
      1.01259641907765E-03   2.02400106419600E-02   5.65751990576678E-27   0.00000000000000E+00   0.00000000000000E+00
      0.00000000000000E+00   0.00000000000000E+00   1.45011235588253E-03  -2.16901229978424E-02  -2.02400106419599E-02
      1.00643076549354E-29
      6.63333333333334E-01
      9.95000000000001E+00   9.95000000000001E+00   0.00000000000000E+00   0.00000000000000E+00   2.00331571121539E-02
      1.01493011871971E-03   2.10480872308736E-02  -4.50958400692296E-27   0.00000000000000E+00   0.00000000000000E+00
      0.00000000000000E+00   0.00000000000000E+00   1.73029286032668E-03  -2.27783800912003E-02  -2.10480872308736E-02
      1.90641212309833E-29
      6.73333333333334E-01
      1.01000000000000E+01   1.01000000000000E+01   0.00000000000000E+00   0.00000000000000E+00   2.08495783594967E-02
      1.01715714570460E-03   2.18667355052013E-02  -9.29351716963190E-28   0.00000000000000E+00   0.00000000000000E+00
      0.00000000000000E+00   0.00000000000000E+00   2.04132640169649E-03  -2.39080619068977E-02  -2.18667355052012E-02
     -4.35474850453934E-30
      6.83333333333334E-01