DF-ISE text

Info {
  version   = 1.0
  type      = xyplot
  datasets  = [
    "time"
    "Cathode OuterVoltage" "Cathode InnerVoltage" "Cathode QuasiFermiPotential" "Cathode DisplacementCurrent" "Cathode eCurrent"
    "Cathode hCurrent" "Cathode TotalCurrent" "Cathode Charge" "Anode OuterVoltage" "Anode InnerVoltage"
    "Anode QuasiFermiPotential" "Anode DisplacementCurrent" "Anode eCurrent" "Anode hCurrent" "Anode TotalCurrent"
    "Anode Charge" ]
  functions = [
    Time
    OuterVoltage InnerVoltage QuasiFermiPotential DisplacementCurrent eCurrent
    hCurrent TotalCurrent Charge OuterVoltage InnerVoltage
    QuasiFermiPotential DisplacementCurrent eCurrent hCurrent TotalCurrent
    Charge ]
}

Data {
      0.00000000000000E+00
      0.00000000000000E+00   0.00000000000000E+00   0.00000000000000E+00   0.00000000000000E+00   1.38897088153614E-27
     -1.38897088145026E-27   8.58792207473129E-38  -2.93353678391826E-33   0.00000000000000E+00   0.00000000000000E+00
      0.00000000000000E+00   0.00000000000000E+00   1.54711613724292E-21  -1.54711613724292E-21  -5.99571057150688E-40
      5.19772499456736E-32
      0.00000000000000E+00
      0.00000000000000E+00   0.00000000000000E+00   0.00000000000000E+00   0.00000000000000E+00  -7.14017744126603E-23
     -7.62041481081316E-25  -7.21638158937416E-23   2.75716936423063E-33   0.00000000000000E+00   0.00000000000000E+00
      0.00000000000000E+00   0.00000000000000E+00   7.47505637531187E-22  -6.75341821637463E-22   7.21638158937240E-23
      1.13404908972379E-32
      0.00000000000000E+00
      0.00000000000000E+00   0.00000000000000E+00   0.00000000000000E+00   0.00000000000000E+00  -2.50733623004448E-27
     -1.64907079768128E-27  -4.15640702772576E-27  -6.72645582467881E-33   0.00000000000000E+00   0.00000000000000E+00
      0.00000000000000E+00   0.00000000000000E+00  -3.06846486456967E-21   3.06846902097670E-21   4.15640702683512E-27
      7.56032726482525E-33
      1.00000000000000E-02
      0.00000000000000E+00   0.00000000000000E+00   0.00000000000000E+00   0.00000000000000E+00   8.02850763092497E-10
      1.91926399241167E-27   8.02850763092497E-10   1.70979305000115E-34  -1.50000000000000E-01  -1.50000000000000E-01
      0.00000000000000E+00   0.00000000000000E+00  -8.02850763093182E-10   6.85075185957911E-22  -8.02850763092497E-10
     -8.12735180968714E-33
      2.00000000000000E-02
      0.00000000000000E+00   0.00000000000000E+00   0.00000000000000E+00   0.00000000000000E+00   1.43198354767976E-09
      9.93857442256445E-29   1.43198354767976E-09  -1.11665725491388E-33  -3.00000000000000E-01  -3.00000000000000E-01
      0.00000000000000E+00   0.00000000000000E+00  -1.43198354767583E-09  -3.92337520628072E-21  -1.43198354767976E-09
      9.20469844492474E-32
      3.00000000000000E-02
      0.00000000000000E+00   0.00000000000000E+00   0.00000000000000E+00   0.00000000000000E+00   2.13534159766030E-09
      9.10100070223143E-30   2.13534159766030E-09  -7.69086631453636E-34  -4.50000000000000E-01  -4.50000000000000E-01
      0.00000000000000E+00   0.00000000000000E+00  -2.13534159766831E-09   8.01652259104071E-21  -2.13534159766030E-09
      8.24075671865952E-32
      4.00000000000000E-02
      0.00000000000000E+00   0.00000000000000E+00   0.00000000000000E+00   0.00000000000000E+00   2.99130657420493E-09
      5.51592565357127E-30   2.99130657420493E-09  -2.27811776098461E-32  -6.00000000000000E-01  -6.00000000000000E-01
      0.00000000000000E+00   0.00000000000000E+00  -2.99130657417839E-09  -2.65376115845524E-20  -2.99130657420493E-09
     -1.77667690723393E-32
      5.00000000000000E-02
      0.00000000000000E+00   0.00000000000000E+00   0.00000000000000E+00   0.00000000000000E+00   4.08525899548080E-09
     -8.98084435695577E-29   4.08525899548080E-09  -3.39486333143814E-33  -7.50000000000000E-01  -7.50000000000000E-01
      0.00000000000000E+00   0.00000000000000E+00  -4.08525899550052E-09   1.97195282212785E-20  -4.08525899548080E-09
      1.12270859882655E-31
      6.00000000000000E-02
      0.00000000000000E+00   0.00000000000000E+00   0.00000000000000E+00   0.00000000000000E+00   5.62964118193047E-09
      1.25735140511315E-28   5.62964118193047E-09  -1.24292051762898E-33  -9.00000000000000E-01  -9.00000000000000E-01
      0.00000000000000E+00   0.00000000000000E+00  -5.62964118194356E-09   1.30935587668426E-20  -5.62964118193047E-09
      3.78016363241262E-34
      7.00000000000000E-02
      0.00000000000000E+00   0.00000000000000E+00   0.00000000000000E+00   0.00000000000000E+00   7.94402946341078E-09
      1.23080987938463E-27   7.94402946341078E-09  -5.51007777883050E-34  -1.05000000000000E+00  -1.05000000000000E+00
      0.00000000000000E+00   0.00000000000000E+00  -7.94402946340965E-09  -1.13653993556766E-21  -7.94402946341078E-09
      5.21662581272942E-32
      8.00000000000000E-02
      0.00000000000000E+00   0.00000000000000E+00   0.00000000000000E+00   0.00000000000000E+00   1.15106544266762E-08
     -2.98532438342801E-28   1.15106544266762E-08  -1.69011663651492E-32  -1.20000000000000E+00  -1.20000000000000E+00
      0.00000000000000E+00   0.00000000000000E+00  -1.15106544266452E-08  -3.10454408066907E-20  -1.15106544266762E-08
     -8.35416162763190E-32
      9.00000000000000E-02
      0.00000000000000E+00   0.00000000000000E+00   0.00000000000000E+00   0.00000000000000E+00   1.72662776106063E-08
      1.69778551978223E-28   1.72662776106063E-08  -6.28610288771821E-33  -1.35000000000000E+00  -1.35000000000000E+00
      0.00000000000000E+00   0.00000000000000E+00  -1.72662776106159E-08   9.60931467332304E-21  -1.72662776106063E-08
      1.45914316211127E-31
      1.00000000000000E-01
      0.00000000000000E+00   0.00000000000000E+00   0.00000000000000E+00   0.00000000000000E+00   2.69360631068056E-08
     -1.22361810215108E-28   2.69360631068056E-08  -1.44821363721512E-32  -1.50000000000000E+00  -1.50000000000000E+00
      0.00000000000000E+00   0.00000000000000E+00  -2.69360631067983E-08  -7.30991549423385E-21  -2.69360631068056E-08
     -1.93922394342768E-31
      1.10000000000000E-01
      0.00000000000000E+00   0.00000000000000E+00   0.00000000000000E+00   0.00000000000000E+00   4.36966303381119E-08
      1.86918208332492E-27   4.36966303381119E-08   5.83974620242649E-33  -1.65000000000000E+00  -1.65000000000000E+00
      0.00000000000000E+00   0.00000000000000E+00  -4.36966303381412E-08   2.92843407751078E-20  -4.36966303381119E-08
     -1.23611350779893E-31
      1.20000000000000E-01
      0.00000000000000E+00   0.00000000000000E+00   0.00000000000000E+00   0.00000000000000E+00   7.35670485051705E-08
     -2.61555014649619E-27   7.35670485051705E-08  -3.15875298936732E-32  -1.80000000000000E+00  -1.80000000000000E+00
      0.00000000000000E+00   0.00000000000000E+00  -7.35670485051599E-08  -1.05964453517915E-20  -7.35670485051705E-08
      1.40622087125750E-31
      1.30000000000000E-01
      0.00000000000000E+00   0.00000000000000E+00   0.00000000000000E+00   0.00000000000000E+00   1.28503326105477E-07
      2.63645146598127E-26   1.28503326105477E-07   1.54567549336564E-32  -1.95000000000000E+00  -1.95000000000000E+00
      0.00000000000000E+00   0.00000000000000E+00  -1.28503326105486E-07   9.74692579006139E-21  -1.28503326105477E-07
      6.01046017553607E-32
      1.40000000000000E-01
      0.00000000000000E+00   0.00000000000000E+00   0.00000000000000E+00   0.00000000000000E+00   2.33160085929808E-07
      4.73646052760861E-27   2.33160085929808E-07  -6.38945061291509E-33  -2.10000000000000E+00  -2.10000000000000E+00
      0.00000000000000E+00   0.00000000000000E+00  -2.33160085929776E-07  -3.18944015902384E-20  -2.33160085929808E-07
     -1.17185072604791E-32
      1.50000000000000E-01
      0.00000000000000E+00   0.00000000000000E+00   0.00000000000000E+00   0.00000000000000E+00   4.40887484547288E-07
      2.41268607961141E-25   4.40887484547288E-07   1.69345708146233E-32  -2.25000000000000E+00  -2.25000000000000E+00
      0.00000000000000E+00   0.00000000000000E+00  -4.40887484547314E-07   2.54647835927255E-20  -4.40887484547288E-07
     -4.00697345035738E-32
      1.60000000000000E-01
      0.00000000000000E+00   0.00000000000000E+00   0.00000000000000E+00   0.00000000000000E+00   8.72322064891501E-07
      1.46821221124220E-26   8.72322064891501E-07  -1.86945533061264E-32  -2.40000000000000E+00  -2.40000000000000E+00
      0.00000000000000E+00   0.00000000000000E+00  -8.72322064891542E-07   4.07999050415528E-20  -8.72322064891501E-07
     -2.19627507043173E-31
      1.70000000000000E-01
      0.00000000000000E+00   0.00000000000000E+00   0.00000000000000E+00   0.00000000000000E+00   1.81012225729927E-06
     -1.55935617599696E-22   1.81012225729927E-06  -1.07484496610454E-32  -2.55000000000000E+00  -2.55000000000000E+00
      0.00000000000000E+00   0.00000000000000E+00  -1.81012225725027E-06  -4.89991212121743E-17  -1.81012225729927E-06
      1.47048365300851E-31
      1.80000000000000E-01
      0.00000000000000E+00   0.00000000000000E+00   0.00000000000000E+00   0.00000000000000E+00   3.93385293724555E-06
      4.38971417166339E-23   3.93385293724555E-06   1.12793637096966E-32  -2.70000000000000E+00  -2.70000000000000E+00
      0.00000000000000E+00   0.00000000000000E+00  -3.93385293713376E-06  -1.11790201829124E-16  -3.93385293724555E-06
      6.04826181186020E-32
      1.90000000000000E-01
      0.00000000000000E+00   0.00000000000000E+00   0.00000000000000E+00   0.00000000000000E+00   8.87414938454389E-06
     -7.59034640499675E-24   8.87414938454389E-06   5.96587211416050E-33  -2.85000000000000E+00  -2.85000000000000E+00
      0.00000000000000E+00   0.00000000000000E+00  -8.87414938439420E-06  -1.49692971151664E-16  -8.87414938454389E-06
     -3.74236199608850E-32
      2.00000000000000E-01
      0.00000000000000E+00   0.00000000000000E+00   0.00000000000000E+00   0.00000000000000E+00   2.02895051674565E-05
     -1.26068325154431E-25   2.02895051674565E-05  -1.38136041536579E-32  -3.00000000000000E+00  -3.00000000000000E+00
      0.00000000000000E+00   0.00000000000000E+00  -2.02895051674570E-05   5.07894225048959E-19  -2.02895051674565E-05
      8.42976490028015E-32
      2.10000000000000E-01
      0.00000000000000E+00   0.00000000000000E+00   0.00000000000000E+00   0.00000000000000E+00   4.49784226664618E-05
     -3.23969358827391E-23   4.49784226664618E-05   7.67677292107682E-34  -3.15000000000000E+00  -3.15000000000000E+00
      0.00000000000000E+00   0.00000000000000E+00  -4.49784226665688E-05   1.06963385700121E-16  -4.49784226664618E-05
      2.45710636106820E-32
      2.20000000000000E-01
      0.00000000000000E+00   0.00000000000000E+00   0.00000000000000E+00   0.00000000000000E+00   9.19740299245012E-05
     -3.20205652285783E-22   9.19740299245012E-05   3.70138776697808E-32  -3.30000000000000E+00  -3.30000000000000E+00
      0.00000000000000E+00   0.00000000000000E+00  -9.19740299262629E-05   1.76174993890683E-15  -9.19740299245012E-05
     -5.67024544861893E-32
      2.30000000000000E-01
      0.00000000000000E+00   0.00000000000000E+00   0.00000000000000E+00   0.00000000000000E+00   1.69411524497438E-04
     -1.03733179077741E-20   1.69411524497438E-04   8.95002406278235E-33  -3.45000000000000E+00  -3.45000000000000E+00
      0.00000000000000E+00   0.00000000000000E+00  -1.69411524504551E-04   7.11304285467552E-15  -1.69411524497438E-04
      2.83512272430947E-32
      2.40000000000000E-01
      0.00000000000000E+00   0.00000000000000E+00   0.00000000000000E+00   0.00000000000000E+00   2.83141921065064E-04
     -2.05461757457916E-20   2.83141921065063E-04  -2.54835500614625E-32  -3.60000000000000E+00  -3.60000000000000E+00
      0.00000000000000E+00   0.00000000000000E+00  -2.83141921077488E-04   1.24245896227065E-14  -2.83141921065063E-04
     -2.74817896076398E-31
      2.50000000000000E-01
      0.00000000000000E+00   0.00000000000000E+00   0.00000000000000E+00   0.00000000000000E+00   4.37360920897893E-04
     -2.41677774725005E-20   4.37360920897893E-04  -2.89178288260557E-32  -3.75000000000000E+00  -3.75000000000000E+00
      0.00000000000000E+00   0.00000000000000E+00  -4.37360920912523E-04   1.46292354375673E-14  -4.37360920897893E-04
     -5.85925363023957E-32
      2.60000000000000E-01
      0.00000000000000E+00   0.00000000000000E+00   0.00000000000000E+00   0.00000000000000E+00   6.35393477809538E-04
     -2.08239372145042E-20   6.35393477809538E-04  -1.76640201535610E-32  -3.90000000000000E+00  -3.90000000000000E+00
      0.00000000000000E+00   0.00000000000000E+00  -6.35393477823075E-04   1.35372609205856E-14  -6.35393477809538E-04
      8.27855835498364E-32
      2.70000000000000E-01
      0.00000000000000E+00   0.00000000000000E+00   0.00000000000000E+00   0.00000000000000E+00   8.81677489301955E-04
     -6.81994043552999E-21   8.81677489301955E-04  -5.54812887638038E-33  -4.05000000000000E+00  -4.05000000000000E+00
      0.00000000000000E+00   0.00000000000000E+00  -8.81677489310330E-04   8.37558640959109E-15  -8.81677489301955E-04
      2.89938550606048E-31
      2.80000000000000E-01
      0.00000000000000E+00   0.00000000000000E+00   0.00000000000000E+00   0.00000000000000E+00   1.18406243713486E-03
     -4.08557812385822E-21   1.18406243713486E-03  -3.34384275973921E-32  -4.20000000000000E+00  -4.20000000000000E+00
      0.00000000000000E+00   0.00000000000000E+00  -1.18406243712611E-03  -8.75297319772704E-15  -1.18406243713486E-03
      6.42627817510146E-33
      2.90000000000000E-01
      0.00000000000000E+00   0.00000000000000E+00   0.00000000000000E+00   0.00000000000000E+00   1.54750119223713E-03
     -5.63098081572408E-20   1.54750119223713E-03  -1.28317982308985E-32  -4.35000000000000E+00  -4.35000000000000E+00
      0.00000000000000E+00   0.00000000000000E+00  -1.54750119219719E-03  -3.99464007159023E-14  -1.54750119223713E-03
     -1.04710532617830E-31
      3.00000000000000E-01
      0.00000000000000E+00   0.00000000000000E+00   0.00000000000000E+00   0.00000000000000E+00   1.95792032504993E-03
     -5.12600665867229E-21   1.95792032504993E-03  -6.24965170067583E-33  -4.50000000000000E+00  -4.50000000000000E+00
      0.00000000000000E+00   0.00000000000000E+00  -1.95792032503578E-03  -1.41452128188708E-14  -1.95792032504993E-03
     -1.85984050714701E-31
      3.10000000000000E-01
      0.00000000000000E+00   0.00000000000000E+00   0.00000000000000E+00   0.00000000000000E+00   2.39038938101338E-03
     -2.80179898147483E-20   2.39038938101338E-03   1.72588222920174E-32  -4.65000000000000E+00  -4.65000000000000E+00
      0.00000000000000E+00   0.00000000000000E+00  -2.39038938105048E-03   3.70924329659026E-14  -2.39038938101338E-03
     -1.89008181620631E-33
      3.20000000000000E-01
      0.00000000000000E+00   0.00000000000000E+00   0.00000000000000E+00   0.00000000000000E+00   2.82927768028625E-03
     -1.53319738061961E-20   2.82927768028625E-03   8.36914073367592E-34  -4.80000000000000E+00  -4.80000000000000E+00
      0.00000000000000E+00   0.00000000000000E+00  -2.82927768031499E-03   2.87425331133096E-14  -2.82927768028625E-03
     -3.45128939639272E-31
      3.30000000000000E-01
      0.00000000000000E+00   0.00000000000000E+00   0.00000000000000E+00   0.00000000000000E+00   3.26848202105532E-03
     -3.55080387822138E-21   3.26848202105532E-03   1.41739032079622E-32  -4.95000000000000E+00  -4.95000000000000E+00
      0.00000000000000E+00   0.00000000000000E+00  -3.26848202106973E-03   1.44136680571634E-14  -3.26848202105532E-03
     -5.14102254008117E-32
      3.40000000000000E-01
      0.00000000000000E+00   0.00000000000000E+00   0.00000000000000E+00   0.00000000000000E+00   3.70608899042267E-03
     -2.92008209954976E-18   3.70608899042267E-03   1.61392059096971E-33  -5.10000000000000E+00  -5.10000000000000E+00
      0.00000000000000E+00   0.00000000000000E+00  -3.70608898997476E-03  -4.47908788474982E-13  -3.70608899042267E-03
      7.82493871909413E-32
      3.50000000000000E-01
      0.00000000000000E+00   0.00000000000000E+00   0.00000000000000E+00   0.00000000000000E+00   4.14167921823950E-03
     -1.02037776637009E-18   4.14167921823950E-03   4.61576051247502E-33  -5.25000000000000E+00  -5.25000000000000E+00
      0.00000000000000E+00   0.00000000000000E+00  -4.14167921796818E-03  -2.71313721523364E-13  -4.14167921823950E-03
     -7.59812890114937E-32
      3.60000000000000E-01
      0.00000000000000E+00   0.00000000000000E+00   0.00000000000000E+00   0.00000000000000E+00   4.57534032757945E-03
     -4.87898763481048E-19   4.57534032757945E-03  -1.11017185847522E-32  -5.40000000000000E+00  -5.40000000000000E+00
      0.00000000000000E+00   0.00000000000000E+00  -4.57534032738918E-03  -1.90268931369685E-13  -4.57534032757945E-03
      1.27013498049064E-31
      3.70000000000000E-01
      0.00000000000000E+00   0.00000000000000E+00   0.00000000000000E+00   0.00000000000000E+00   5.00732112471280E-03
     -2.90562660902574E-19   5.00732112471280E-03   6.23255225138340E-33  -5.55000000000000E+00  -5.55000000000000E+00
      0.00000000000000E+00   0.00000000000000E+00  -5.00732112456413E-03  -1.48669060155925E-13  -5.00732112471280E-03
     -2.02994787060558E-31
      3.80000000000000E-01
      0.00000000000000E+00   0.00000000000000E+00   0.00000000000000E+00   0.00000000000000E+00   5.43791176377610E-03
     -2.00033753929000E-19   5.43791176377610E-03   1.30608805430146E-33  -5.70000000000000E+00  -5.70000000000000E+00
      0.00000000000000E+00   0.00000000000000E+00  -5.43791176365160E-03  -1.24504560165836E-13  -5.43791176377610E-03
     -1.85984050714701E-31
      3.90000000000000E-01
      0.00000000000000E+00   0.00000000000000E+00   0.00000000000000E+00   0.00000000000000E+00   5.86740840484899E-03
     -1.46849838203023E-19   5.86740840484899E-03  -2.14620846367624E-32  -5.85000000000000E+00  -5.85000000000000E+00
      0.00000000000000E+00   0.00000000000000E+00  -5.86740840474030E-03  -1.08690974790713E-13  -5.86740840484899E-03
     -2.84646321520670E-31
      4.00000000000000E-01
      0.00000000000000E+00   0.00000000000000E+00   0.00000000000000E+00   0.00000000000000E+00   6.29611278279827E-03
     -1.14912630417367E-19   6.29611278279827E-03  -4.18145029054424E-33  -6.00000000000000E+00  -6.00000000000000E+00
      0.00000000000000E+00   0.00000000000000E+00  -6.29611278270110E-03  -9.71755856892153E-14  -6.29611278279827E-03
      2.35126177936065E-31
      4.10000000000000E-01
      0.00000000000000E+00   0.00000000000000E+00   0.00000000000000E+00   0.00000000000000E+00   6.72434804741654E-03
     -9.13588535462977E-20   6.72434804741654E-03  -2.35269883320095E-32  -6.15000000000000E+00  -6.15000000000000E+00
      0.00000000000000E+00   0.00000000000000E+00  -6.72434804732857E-03  -8.79727863255221E-14  -6.72434804741654E-03
     -2.51002865192198E-31
      4.20000000000000E-01
      0.00000000000000E+00   0.00000000000000E+00   0.00000000000000E+00   0.00000000000000E+00   7.15248292957298E-03
     -6.85227754765046E-20   7.15248292957298E-03  -1.77351351632492E-32  -6.30000000000000E+00  -6.30000000000000E+00
      0.00000000000000E+00   0.00000000000000E+00  -7.15248292949293E-03  -8.00514914210827E-14  -7.15248292957298E-03
     -5.78365035759131E-32
      4.30000000000000E-01
      0.00000000000000E+00   0.00000000000000E+00   0.00000000000000E+00   0.00000000000000E+00   7.58096034615382E-03
     -5.50753478902729E-20   7.58096034615382E-03  -1.53947938654168E-33  -6.45000000000000E+00  -6.45000000000000E+00
      0.00000000000000E+00   0.00000000000000E+00  -7.58096034608100E-03  -7.28244668727870E-14  -7.58096034615382E-03
     -2.64611454268884E-33
      4.40000000000000E-01
      0.00000000000000E+00   0.00000000000000E+00   0.00000000000000E+00   0.00000000000000E+00   8.01032852988047E-03
     -4.54994900480745E-20   8.01032852988047E-03  -1.04058941649116E-32  -6.60000000000000E+00  -6.60000000000000E+00
      0.00000000000000E+00   0.00000000000000E+00  -8.01032852981452E-03  -6.59483042692864E-14  -8.01032852988047E-03
      1.01686401711900E-31
      4.50000000000000E-01
      0.00000000000000E+00   0.00000000000000E+00   0.00000000000000E+00   0.00000000000000E+00   8.44127418203858E-03
     -3.51365506915398E-20   8.44127418203858E-03   8.59468965109265E-33  -6.75000000000000E+00  -6.75000000000000E+00
      0.00000000000000E+00   0.00000000000000E+00  -8.44127418197935E-03  -5.92278096943958E-14  -8.44127418203858E-03
      1.20965236237204E-32
      4.60000000000000E-01
      0.00000000000000E+00   0.00000000000000E+00   0.00000000000000E+00   0.00000000000000E+00   8.87465847889874E-03
     -2.63291576314380E-20   8.87465847889874E-03  -1.61133927963385E-32  -6.90000000000000E+00  -6.90000000000000E+00
      0.00000000000000E+00   0.00000000000000E+00  -8.87465847884620E-03  -5.25400517014986E-14  -8.87465847889874E-03
      2.32102047030135E-31
      4.70000000000000E-01
      0.00000000000000E+00   0.00000000000000E+00   0.00000000000000E+00   0.00000000000000E+00   9.31155818523210E-03
     -1.94145297807432E-20   9.31155818523210E-03  -9.43277329117400E-33  -7.05000000000000E+00  -7.05000000000000E+00
      0.00000000000000E+00   0.00000000000000E+00  -9.31155818518629E-03  -4.58050067465447E-14  -9.31155818523210E-03
     -1.16429039878309E-31
      4.80000000000000E-01
      0.00000000000000E+00   0.00000000000000E+00   0.00000000000000E+00   0.00000000000000E+00   9.75331579687007E-03
     -1.31305714491494E-20   9.75331579687007E-03  -6.38574755578697E-33  -7.20000000000000E+00  -7.20000000000000E+00
      0.00000000000000E+00   0.00000000000000E+00  -9.75331579683112E-03  -3.89501391671462E-14  -9.75331579687007E-03
      1.32305727134442E-31
      4.90000000000000E-01
      0.00000000000000E+00   0.00000000000000E+00   0.00000000000000E+00   0.00000000000000E+00   1.02016048459456E-02
     -8.46895999697184E-21   1.02016048459456E-02  -9.72983413372998E-33  -7.35000000000000E+00  -7.35000000000000E+00
      0.00000000000000E+00   0.00000000000000E+00  -1.02016048459137E-02  -3.18995219015169E-14  -1.02016048459456E-02
      1.17941105331274E-31
      5.00000000000000E-01
      0.00000000000000E+00   0.00000000000000E+00   0.00000000000000E+00   0.00000000000000E+00   1.06585198382284E-02
     -4.55156833636763E-21   1.06585198382284E-02  -1.00560503268344E-33  -7.50000000000000E+00  -7.50000000000000E+00
      0.00000000000000E+00   0.00000000000000E+00  -1.06585198382039E-02  -2.45493969355495E-14  -1.06585198382284E-02
      3.02413090593010E-31
      5.10000000000000E-01
      0.00000000000000E+00   0.00000000000000E+00   0.00000000000000E+00   0.00000000000000E+00   1.11267058702692E-02
     -1.95323783081826E-21   1.11267058702692E-02  -3.14000848820822E-32  -7.65000000000000E+00  -7.65000000000000E+00
      0.00000000000000E+00   0.00000000000000E+00  -1.11267058702525E-02  -1.67465727822656E-14  -1.11267058702692E-02
      3.36812579647965E-31
      5.20000000000000E-01
      0.00000000000000E+00   0.00000000000000E+00   0.00000000000000E+00   0.00000000000000E+00   1.16095530279163E-02
     -4.30672587349046E-22   1.16095530279163E-02   6.52369910779542E-33  -7.80000000000000E+00  -7.80000000000000E+00
      0.00000000000000E+00   0.00000000000000E+00  -1.16095530279080E-02  -8.26473134523539E-15  -1.16095530279163E-02
      2.21517588859380E-31
      5.30000000000000E-01
      0.00000000000000E+00   0.00000000000000E+00   0.00000000000000E+00   0.00000000000000E+00   1.21114999574389E-02
     -3.07054290894244E-22   1.21114999574389E-02  -3.82576142182068E-32  -7.95000000000000E+00  -7.95000000000000E+00
      0.00000000000000E+00   0.00000000000000E+00  -1.21114999574402E-02   1.25345743671945E-15  -1.21114999574389E-02
     -1.95812476158974E-31
      5.40000000000000E-01
      0.00000000000000E+00   0.00000000000000E+00   0.00000000000000E+00   0.00000000000000E+00   1.26385305139331E-02
     -1.53680130996770E-21   1.26385305139331E-02  -4.85004093893048E-33  -8.10000000000000E+00  -8.10000000000000E+00
      0.00000000000000E+00   0.00000000000000E+00  -1.26385305139454E-02   1.22776841977510E-14  -1.26385305139331E-02
      1.20965236237204E-32
      5.50000000000000E-01
      0.00000000000000E+00   0.00000000000000E+00   0.00000000000000E+00   0.00000000000000E+00   1.31990349616613E-02
     -5.17051947773195E-21   1.31990349616613E-02   1.57119188561208E-32  -8.25000000000000E+00  -8.25000000000000E+00
      0.00000000000000E+00   0.00000000000000E+00  -1.31990349616867E-02   2.54241926706724E-14  -1.31990349616613E-02
      2.94852763328185E-32
      5.60000000000000E-01
      0.00000000000000E+00   0.00000000000000E+00   0.00000000000000E+00   0.00000000000000E+00   1.38054218278005E-02
     -1.25797406676686E-20   1.38054218278005E-02   4.56032636688426E-33  -8.40000000000000E+00  -8.40000000000000E+00
      0.00000000000000E+00   0.00000000000000E+00  -1.38054218278415E-02   4.10143405714122E-14  -1.38054218278005E-02
      1.21721268963686E-31
      5.70000000000000E-01
      0.00000000000000E+00   0.00000000000000E+00   0.00000000000000E+00   0.00000000000000E+00   1.44774681784591E-02
     -2.23193231891854E-20   1.44774681784591E-02   3.34386371406309E-32  -8.55000000000000E+00  -8.55000000000000E+00
      0.00000000000000E+00   0.00000000000000E+00  -1.44774681785156E-02   5.65213907122175E-14  -1.44774681784591E-02
     -1.37597956219819E-31
      5.80000000000000E-01
      0.00000000000000E+00   0.00000000000000E+00   0.00000000000000E+00   0.00000000000000E+00   1.52504359976770E-02
     -1.51486976138309E-20   1.52504359976770E-02  -1.79753535493977E-33  -8.70000000000000E+00  -8.70000000000000E+00
      0.00000000000000E+00   0.00000000000000E+00  -1.52504359977267E-02   4.97418776448946E-14  -1.52504359976770E-02
     -1.68973314368844E-31
      5.90000000000000E-01
      0.00000000000000E+00   0.00000000000000E+00   0.00000000000000E+00   0.00000000000000E+00   1.62003083140769E-02
     -2.46931104584231E-19   1.62003083140769E-02  -2.35958877711865E-32  -8.85000000000000E+00  -8.85000000000000E+00
      0.00000000000000E+00   0.00000000000000E+00  -1.62003083139068E-02  -1.70059295270567E-13  -1.62003083140769E-02
     -4.53619635889515E-32
      6.00000000000000E-01
      0.00000000000000E+00   0.00000000000000E+00   0.00000000000000E+00   0.00000000000000E+00   1.75764865837184E-02
     -7.59461413900131E-21   1.75764865837184E-02  -2.87447097900056E-33  -9.00000000000000E+00  -9.00000000000000E+00
      0.00000000000000E+00   0.00000000000000E+00  -1.75764865837573E-02   3.89109612339630E-14  -1.75764865837184E-02
     -3.17533745122660E-32
      6.05000000000000E-01
      0.00000000000000E+00   0.00000000000000E+00   0.00000000000000E+00   0.00000000000000E+00   1.89776641241464E-02
     -9.18126888790267E-22   1.89776641241464E-02   3.81035829940013E-32  -9.07500000000000E+00  -9.07500000000000E+00
      0.00000000000000E+00   0.00000000000000E+00  -1.89776641241655E-02   1.91551310531585E-14  -1.89776641241464E-02
      2.00348672517869E-32
      6.05458333333333E-01
      0.00000000000000E+00   0.00000000000000E+00   0.00000000000000E+00   0.00000000000000E+00   1.92933400176278E-02
     -3.72625036797729E-21   1.92933400176278E-02   9.86853643635303E-33  -9.08187500000000E+00  -9.08187500000000E+00
      0.00000000000000E+00   0.00000000000000E+00  -1.92933400175900E-02  -3.77509243870243E-14  -1.92933400176278E-02
      8.31635999130777E-32
      6.05641666666667E-01
      0.00000000000000E+00   0.00000000000000E+00   0.00000000000000E+00   0.00000000000000E+00   1.95136493388629E-02
      1.94890426578812E-23   1.95136493388629E-02  -1.69909392414148E-32  -9.08462500000000E+00  -9.08462500000000E+00
      0.00000000000000E+00   0.00000000000000E+00  -1.95136493388610E-02  -1.88692048379087E-15  -1.95136493388629E-02
     -7.14450926525986E-32
      6.05715000000000E-01
      0.00000000000000E+00   0.00000000000000E+00   0.00000000000000E+00   0.00000000000000E+00   1.97249809494936E-02
      1.73761177579291E-19   1.97249809494936E-02  -4.98983584055721E-33  -9.08572500000000E+00  -9.08572500000000E+00
      0.00000000000000E+00   0.00000000000000E+00  -1.97249809493308E-02  -1.62715826572166E-13  -1.97249809494936E-02
      3.24716056024244E-31
      6.05716680555556E-01
      0.00000000000000E+00   0.00000000000000E+00   0.00000000000000E+00   0.00000000000000E+00   1.97428731111281E-02
      5.69752989729667E-20   1.97428731111281E-02  -1.46621084015347E-32  -9.08575020833333E+00  -9.08575020833333E+00
      0.00000000000000E+00   0.00000000000000E+00  -1.97428731112086E-02   8.05828955211807E-14  -1.97428731111281E-02
     -1.25501432596099E-31
      6.05717352777778E-01
      0.00000000000000E+00   0.00000000000000E+00   0.00000000000000E+00   0.00000000000000E+00   1.97536058519530E-02
      4.46684167511354E-19   1.97536058519530E-02  -1.07880619176858E-33  -9.08576029166667E+00  -9.08576029166667E+00
      0.00000000000000E+00   0.00000000000000E+00  -1.97536058521588E-02   2.05807702907989E-13  -1.97536058519530E-02
      1.34573825313889E-31
      6.05717644074074E-01
      0.00000000000000E+00   0.00000000000000E+00   0.00000000000000E+00   0.00000000000000E+00   1.97602787329552E-02
      7.27699382213881E-20   1.97602787329552E-02  -1.96609179200263E-32  -9.08576466111111E+00  -9.08576466111111E+00
      0.00000000000000E+00   0.00000000000000E+00  -1.97602787328635E-02  -9.16843657479767E-14  -1.97602787329552E-02
     -9.97963198956932E-32
      6.05717877111111E-01
      0.00000000000000E+00   0.00000000000000E+00   0.00000000000000E+00   0.00000000000000E+00   1.97689338516602E-02
      2.22165163317793E-19   1.97689338516602E-02  -2.82026209806832E-32  -9.08576815666667E+00  -9.08576815666667E+00
      0.00000000000000E+00   0.00000000000000E+00  -1.97689338514996E-02  -1.60540286287922E-13  -1.97689338516602E-02
     -3.28874236019898E-32
      6.05717896530864E-01