DF-ISE text

Info {
  version   = 1.0
  type      = xyplot
  datasets  = [
    "time"
    "ntype OuterVoltage" "ntype InnerVoltage" "ntype QuasiFermiPotential" "ntype DisplacementCurrent" "ntype eCurrent"
    "ntype hCurrent" "ntype TotalCurrent" "ntype Charge" "ptype OuterVoltage" "ptype InnerVoltage"
    "ptype QuasiFermiPotential" "ptype DisplacementCurrent" "ptype eCurrent" "ptype hCurrent" "ptype TotalCurrent"
    "ptype Charge" ]
  functions = [
    Time
    OuterVoltage InnerVoltage QuasiFermiPotential DisplacementCurrent eCurrent
    hCurrent TotalCurrent Charge OuterVoltage InnerVoltage
    QuasiFermiPotential DisplacementCurrent eCurrent hCurrent TotalCurrent
    Charge ]
}

Data {
      0.00000000000000E+00
      0.00000000000000E+00   0.00000000000000E+00   0.00000000000000E+00   0.00000000000000E+00   8.02033282317572E-12
     -8.02033282317570E-12   1.58216483763631E-26  -1.01166648113261E-27   0.00000000000000E+00   0.00000000000000E+00
      0.00000000000000E+00   0.00000000000000E+00  -1.51328098395374E-24  -1.22097836486376E-18  -1.22097987814474E-18
      4.74183726049839E-30
      0.00000000000000E+00
      0.00000000000000E+00   0.00000000000000E+00   0.00000000000000E+00   0.00000000000000E+00   7.11420392041856E-12
     -6.05160995229968E-12   1.06259396811888E-12  -2.60269605572740E-28   0.00000000000000E+00   0.00000000000000E+00
      0.00000000000000E+00   0.00000000000000E+00   2.79345836297363E-13  -1.39484558632780E-18   2.79344441451777E-13
      6.77405322928342E-31
      0.00000000000000E+00
      0.00000000000000E+00   0.00000000000000E+00   0.00000000000000E+00   0.00000000000000E+00   7.00194408131138E-12
     -3.56870832421851E-12   3.43323575709287E-12   2.06624878196764E-28   0.00000000000000E+00   0.00000000000000E+00
      0.00000000000000E+00   0.00000000000000E+00   2.79341924632763E-13  -3.71257812755534E-12  -3.43323620292258E-12
      2.62252632162258E-29
      5.00000000000000E-03
      7.50000000000000E-02   7.50000000000000E-02   0.00000000000000E+00   0.00000000000000E+00   1.21012019218550E-09
      1.25901968562552E-10   1.33602216074805E-09   1.49434168325403E-28   0.00000000000000E+00   0.00000000000000E+00
      0.00000000000000E+00   0.00000000000000E+00   2.69784013274057E-13  -1.33629194507155E-09  -1.33602216105827E-09
      1.88705768530038E-29
      1.33333333333333E-02
      2.00000000000000E-01   2.00000000000000E-01   0.00000000000000E+00   0.00000000000000E+00   2.52595969337278E-09
      2.53177272478516E-10   2.77913696585129E-09   1.04554411859811E-28   0.00000000000000E+00   0.00000000000000E+00
      0.00000000000000E+00   0.00000000000000E+00   2.68953630960204E-13  -2.77940591948742E-09  -2.77913696585646E-09
     -5.80633133938579E-30
      2.33333333333333E-02
      3.50000000000000E-01   3.50000000000000E-01   0.00000000000000E+00   0.00000000000000E+00   3.94353584322930E-09
      3.90444865066244E-10   4.33398070829555E-09   1.24337747023497E-27   0.00000000000000E+00   0.00000000000000E+00
      0.00000000000000E+00   0.00000000000000E+00   2.68852760319274E-13  -4.33424956121776E-09  -4.33398070845744E-09
     -2.09995650107786E-29
      3.33333333333333E-02
      5.00000000000000E-01   5.00000000000000E-01   0.00000000000000E+00   0.00000000000000E+00   5.33207182366691E-09
      5.66897548331743E-10   5.89896937199866E-09  -1.17802033111237E-27   0.00000000000000E+00   0.00000000000000E+00
      0.00000000000000E+00   0.00000000000000E+00   2.68803230237579E-13  -5.89923817525823E-09  -5.89896937202799E-09
      4.83860944948816E-30
      4.33333333333333E-02
      6.50000000000000E-01   6.50000000000000E-01   0.00000000000000E+00   0.00000000000000E+00   6.67991324771024E-09
      1.01247138432096E-09   7.69238463203119E-09   1.62453590548750E-27   0.00000000000000E+00   0.00000000000000E+00
      0.00000000000000E+00   0.00000000000000E+00   2.68794439274211E-13  -7.69265342651189E-09  -7.69238463207262E-09
      1.71286774511881E-29
      5.33333333333333E-02
      8.00000000000000E-01   8.00000000000000E-01   0.00000000000000E+00   0.00000000000000E+00   7.96566283678585E-09
      3.02189597107102E-09   1.09875588078569E-08   1.03769649889722E-27   0.00000000000000E+00   0.00000000000000E+00
      0.00000000000000E+00   0.00000000000000E+00   2.68869978192563E-13  -1.09878276777904E-08  -1.09875588078122E-08
     -5.03215382746768E-30
      6.33333333333333E-02
      9.50000000000000E-01   9.50000000000000E-01   0.00000000000000E+00   0.00000000000000E+00   9.17415936242327E-09
      1.31960271149446E-08   2.23701864773678E-08  -1.51572162723032E-27   0.00000000000000E+00   0.00000000000000E+00
      0.00000000000000E+00   0.00000000000000E+00   2.69315497728962E-13  -2.23704557928931E-08  -2.23701864773954E-08
      1.19997514347306E-29
      7.33333333333333E-02
      1.10000000000000E+00   1.10000000000000E+00   0.00000000000000E+00   0.00000000000000E+00   1.10875200706499E-08
      6.17614003667256E-08   7.28489204373755E-08  -4.67833051147386E-29   0.00000000000000E+00   0.00000000000000E+00
      0.00000000000000E+00   0.00000000000000E+00   2.71534229261598E-13  -7.28491919715909E-08  -7.28489204373617E-08
      8.61272482008892E-30
      8.33333333333333E-02
      1.25000000000000E+00   1.25000000000000E+00   0.00000000000000E+00   0.00000000000000E+00   1.77189480946664E-08
      2.66138494617999E-07   2.83857442712665E-07   4.31050546938558E-28   0.00000000000000E+00   0.00000000000000E+00
      0.00000000000000E+00   0.00000000000000E+00   2.81036486866834E-13  -2.83857723749149E-07  -2.83857442712662E-07
     -2.32253253575432E-29
      9.33333333333333E-02
      1.40000000000000E+00   1.40000000000000E+00   0.00000000000000E+00   0.00000000000000E+00   4.75003881661000E-08
      1.00225891319175E-06   1.04975930135785E-06   2.69649656358163E-28   0.00000000000000E+00   0.00000000000000E+00
      0.00000000000000E+00   0.00000000000000E+00   3.15625613638113E-13  -1.04975961698349E-06  -1.04975930135787E-06
     -3.26122276895502E-29
      1.03333333333333E-01
      1.55000000000000E+00   1.55000000000000E+00   0.00000000000000E+00   0.00000000000000E+00   1.75473659406292E-07
      3.24679552437352E-06   3.42226918377981E-06   1.08658233102431E-27   0.00000000000000E+00   0.00000000000000E+00
      0.00000000000000E+00   0.00000000000000E+00   4.21897066845016E-13  -3.42226960567687E-06  -3.42226918377981E-06
      1.37416508365464E-29
      1.13333333333333E-01
      1.70000000000000E+00   1.70000000000000E+00   0.00000000000000E+00   0.00000000000000E+00   6.26326985131626E-07
      8.99489745484756E-06   9.62122443997918E-06   2.45269112994555E-27   0.00000000000000E+00   0.00000000000000E+00
      0.00000000000000E+00   0.00000000000000E+00   6.92802503588190E-13  -9.62122513278168E-06  -9.62122443997917E-06
      1.06449407888739E-30
      1.23333333333333E-01
      1.85000000000000E+00   1.85000000000000E+00   0.00000000000000E+00   0.00000000000000E+00   1.90889781256176E-06
      2.12650823946203E-05   2.31739802071820E-05   2.87086795161756E-28   0.00000000000000E+00   0.00000000000000E+00
      0.00000000000000E+00   0.00000000000000E+00   1.25268347154223E-12  -2.31739814598655E-05  -2.31739802071820E-05
      6.48373666231413E-30
      1.33333333333333E-01
      2.00000000000000E+00   2.00000000000000E+00   0.00000000000000E+00   0.00000000000000E+00   4.88974921697364E-06
      4.30908778264130E-05   4.79806270433867E-05  -2.84667490437012E-27   0.00000000000000E+00   0.00000000000000E+00
      0.00000000000000E+00   0.00000000000000E+00   2.17327065790414E-12  -4.79806292166574E-05  -4.79806270433867E-05
     -6.19342009534484E-30
      1.43333333333333E-01
      2.15000000000000E+00   2.15000000000000E+00   0.00000000000000E+00   0.00000000000000E+00   1.06781437562489E-05
      7.59236894835878E-05   8.66018332398367E-05   8.43091407002440E-28   0.00000000000000E+00   0.00000000000000E+00
      0.00000000000000E+00   0.00000000000000E+00   3.37689138692398E-12  -8.66018366167282E-05  -8.66018332398368E-05
      2.99993785868266E-30
      1.53333333333333E-01
      2.30000000000000E+00   2.30000000000000E+00   0.00000000000000E+00   0.00000000000000E+00   2.03839055227493E-05
      1.18889898753837E-04   1.39273804276586E-04  -1.39642268712228E-28   0.00000000000000E+00   0.00000000000000E+00
      0.00000000000000E+00   0.00000000000000E+00   4.65104814969064E-12  -1.39273808927634E-04  -1.39273804276586E-04
      4.35474850453934E-30
      1.63333333333333E-01
      2.45000000000000E+00   2.45000000000000E+00   0.00000000000000E+00   0.00000000000000E+00   3.49486874661410E-05
      1.69404038495631E-04   2.04352725961772E-04  -3.70284265340980E-27   0.00000000000000E+00   0.00000000000000E+00
      0.00000000000000E+00   0.00000000000000E+00   5.76455092520141E-12  -2.04352731726324E-04  -2.04352725961773E-04
      8.90304138705821E-30
      1.73333333333333E-01
      2.60000000000000E+00   2.60000000000000E+00   0.00000000000000E+00   0.00000000000000E+00   5.51257856445827E-05
      2.24295758680474E-04   2.79421544325057E-04   2.60152675661180E-27   0.00000000000000E+00   0.00000000000000E+00
      0.00000000000000E+00   0.00000000000000E+00   6.57181222723037E-12  -2.79421550896872E-04  -2.79421544325060E-04
     -1.54835502383621E-30
      1.83333333333333E-01
      2.75000000000000E+00   2.75000000000000E+00   0.00000000000000E+00   0.00000000000000E+00   8.15368028764296E-05
      2.80646462337255E-04   3.62183265213685E-04  -1.99287807396069E-27   0.00000000000000E+00   0.00000000000000E+00
      0.00000000000000E+00   0.00000000000000E+00   7.04759898517703E-12  -3.62183272261285E-04  -3.62183265213686E-04
      1.50964614824031E-29
      1.93333333333333E-01
      2.90000000000000E+00   2.90000000000000E+00   0.00000000000000E+00   0.00000000000000E+00   1.14707717161557E-04
      3.36029517864082E-04   4.50737235025639E-04  -4.43625488071597E-27   0.00000000000000E+00   0.00000000000000E+00
      0.00000000000000E+00   0.00000000000000E+00   7.23965814158881E-12  -4.50737242265299E-04  -4.50737235025641E-04
      1.26771567576590E-29
      2.03333333333333E-01
      3.05000000000000E+00   3.05000000000000E+00   0.00000000000000E+00   0.00000000000000E+00   1.55171048049693E-04
      3.88732379708313E-04   5.43903427758006E-04   1.43532510709617E-27   0.00000000000000E+00   0.00000000000000E+00
      0.00000000000000E+00   0.00000000000000E+00   7.19774416894130E-12  -5.43903434955751E-04  -5.43903427758007E-04
      2.12898815777479E-30
      2.13333333333333E-01
      3.20000000000000E+00   3.20000000000000E+00   0.00000000000000E+00   0.00000000000000E+00   2.03560484261238E-04
      4.37852278857373E-04   6.41412763118611E-04   3.27801274374474E-27   0.00000000000000E+00   0.00000000000000E+00
      0.00000000000000E+00   0.00000000000000E+00   6.94699145779760E-12  -6.41412770065603E-04  -6.41412763118611E-04
      9.48367452099679E-30
      2.23333333333333E-01
      3.35000000000000E+00   3.35000000000000E+00   0.00000000000000E+00   0.00000000000000E+00   2.60621354186817E-04
      4.83052924771408E-04   7.43674278958224E-04   2.45859423347392E-27   0.00000000000000E+00   0.00000000000000E+00
      0.00000000000000E+00   0.00000000000000E+00   6.49491706340218E-12  -7.43674285453143E-04  -7.43674278958226E-04
     -6.77405322928342E-30
      2.33333333333333E-01
      3.50000000000000E+00   3.50000000000000E+00   0.00000000000000E+00   0.00000000000000E+00   3.27203645289685E-04
      5.24341892259312E-04   8.51545537548997E-04  -1.32844022435697E-28   0.00000000000000E+00   0.00000000000000E+00
      0.00000000000000E+00   0.00000000000000E+00   5.83954808907178E-12  -8.51545543388538E-04  -8.51545537548990E-04
     -9.09658576503773E-30
      2.43333333333333E-01
      3.65000000000000E+00   3.65000000000000E+00   0.00000000000000E+00   0.00000000000000E+00   4.04238397797209E-04
      5.61932548202251E-04   9.66170945999460E-04   4.38409467085049E-27   0.00000000000000E+00   0.00000000000000E+00
      0.00000000000000E+00   0.00000000000000E+00   4.97211450153930E-12  -9.66170950971575E-04  -9.66170945999461E-04
      1.18062070567511E-29
      2.53333333333333E-01
      3.80000000000000E+00   3.80000000000000E+00   0.00000000000000E+00   0.00000000000000E+00   4.92717464964601E-04
      5.96144928332910E-04   1.08886239329751E-03   4.71933772655827E-28   0.00000000000000E+00   0.00000000000000E+00
      0.00000000000000E+00   0.00000000000000E+00   3.87780461243320E-12  -1.08886239717532E-03  -1.08886239329751E-03
      1.64512721282597E-30
      2.63333333333333E-01
      3.95000000000000E+00   3.95000000000000E+00   0.00000000000000E+00   0.00000000000000E+00   5.93676600037431E-04
      6.27335058347224E-04   1.22101165838465E-03  -6.21325839408774E-27   0.00000000000000E+00   0.00000000000000E+00
      0.00000000000000E+00   0.00000000000000E+00   2.53643695526429E-12  -1.22101166092109E-03  -1.22101165838465E-03
     -9.38690233200702E-30
      2.73333333333333E-01
      4.10000000000000E+00   4.10000000000000E+00   0.00000000000000E+00   0.00000000000000E+00   7.08176580054905E-04
      6.55851494940409E-04   1.36402807499531E-03  -1.54569378863899E-28   0.00000000000000E+00   0.00000000000000E+00
      0.00000000000000E+00   0.00000000000000E+00   9.23322113318452E-13  -1.36402807591863E-03  -1.36402807499531E-03
      2.12898815777479E-30
      2.83333333333333E-01
      4.25000000000000E+00   4.25000000000000E+00   0.00000000000000E+00   0.00000000000000E+00   8.37282287274741E-04
      6.82012380151521E-04   1.51929466742626E-03  -1.03324633906260E-26   0.00000000000000E+00   0.00000000000000E+00
      0.00000000000000E+00   0.00000000000000E+00  -9.89786630161846E-13  -1.51929466643646E-03  -1.51929466742625E-03
      2.41930472474408E-30
      2.93333333333333E-01
      4.40000000000000E+00   4.40000000000000E+00   0.00000000000000E+00   0.00000000000000E+00   9.82038590619323E-04
      7.06096074731545E-04   1.68813466535087E-03   1.61149887715203E-28   0.00000000000000E+00   0.00000000000000E+00
      0.00000000000000E+00   0.00000000000000E+00  -3.23368047602263E-12  -1.68813466211718E-03  -1.68813466535086E-03
     -7.93531949716058E-30
      3.03333333333333E-01
      4.55000000000000E+00   4.55000000000000E+00   0.00000000000000E+00   0.00000000000000E+00   1.14344355513351E-03
      7.28339998115217E-04   1.87178355324873E-03  -4.53438188035159E-27   0.00000000000000E+00   0.00000000000000E+00
      0.00000000000000E+00   0.00000000000000E+00  -5.84057141672234E-12  -1.87178354740818E-03  -1.87178355324875E-03
      1.93544377979526E-30
      3.13333333333333E-01
      4.70000000000000E+00   4.70000000000000E+00   0.00000000000000E+00   0.00000000000000E+00   1.32242529480435E-03
      7.48943775460037E-04   2.07136907026438E-03   3.23952160557406E-27   0.00000000000000E+00   0.00000000000000E+00
      0.00000000000000E+00   0.00000000000000E+00  -8.84285360714753E-12  -2.07136906142153E-03  -2.07136907026438E-03
     -1.98382987429014E-29
      3.23333333333333E-01
      4.85000000000000E+00   4.85000000000000E+00   0.00000000000000E+00   0.00000000000000E+00   1.51982872791213E-03
      7.68074174468585E-04   2.28790290238071E-03   6.96338801704189E-27   0.00000000000000E+00   0.00000000000000E+00
      0.00000000000000E+00   0.00000000000000E+00  -1.22717888111326E-11  -2.28790289010893E-03  -2.28790290238072E-03
     -1.50964614824031E-29
      3.33333333333333E-01
      5.00000000000000E+00   5.00000000000000E+00   0.00000000000000E+00   0.00000000000000E+00   1.73641173183395E-03
      7.85870486701031E-04   2.52228221853498E-03   6.46181776150795E-27   0.00000000000000E+00   0.00000000000000E+00
      0.00000000000000E+00   0.00000000000000E+00  -1.61561272405364E-11  -2.52228220237886E-03  -2.52228221853499E-03
      2.28382366015841E-29
      3.43333333333333E-01
      5.15000000000000E+00   5.15000000000000E+00   0.00000000000000E+00   0.00000000000000E+00   1.97284624286081E-03
      8.02449693033008E-04   2.77529593589382E-03  -3.75313999863723E-27   0.00000000000000E+00   0.00000000000000E+00
      0.00000000000000E+00   0.00000000000000E+00  -2.05206723933625E-11  -2.77529591537314E-03  -2.77529593589382E-03
      1.80963993410857E-29
      3.53333333333333E-01
      5.30000000000000E+00   5.30000000000000E+00   0.00000000000000E+00   0.00000000000000E+00   2.22972077353422E-03
      8.17911067503611E-04   3.04763184103783E-03   2.12780269845966E-27   0.00000000000000E+00   0.00000000000000E+00
      0.00000000000000E+00   0.00000000000000E+00  -2.53848492145026E-11  -3.04763181565297E-03  -3.04763184103782E-03
     -1.93544377979526E-30
      3.63333333333334E-01
      5.45000000000000E+00   5.45000000000000E+00   0.00000000000000E+00   0.00000000000000E+00   2.50754269952048E-03
      8.32340056891779E-04   3.33988275641226E-03   1.81263987196725E-27   0.00000000000000E+00   0.00000000000000E+00
      0.00000000000000E+00   0.00000000000000E+00  -3.07613723120559E-11  -3.33988272565088E-03  -3.33988275641225E-03
     -5.41924258342674E-30
      3.73333333333334E-01
      5.60000000000000E+00   5.60000000000000E+00   0.00000000000000E+00   0.00000000000000E+00   2.80673957932721E-03
      8.45811411239294E-04   3.65255099056650E-03  -4.58109865458640E-27   0.00000000000000E+00   0.00000000000000E+00
      0.00000000000000E+00   0.00000000000000E+00  -3.66551021246304E-11  -3.65255095391138E-03  -3.65255099056649E-03
      1.66448165062393E-29
      3.83333333333334E-01
      5.75000000000000E+00   5.75000000000000E+00   0.00000000000000E+00   0.00000000000000E+00   3.12765909804629E-03
      8.58391630182220E-04   3.98605072822851E-03  -1.95208859630150E-27   0.00000000000000E+00   0.00000000000000E+00
      0.00000000000000E+00   0.00000000000000E+00  -4.30621658695344E-11  -3.98605068516633E-03  -3.98605072822849E-03
     -1.25803845686692E-30
      3.93333333333334E-01
      5.90000000000000E+00   5.90000000000000E+00   0.00000000000000E+00   0.00000000000000E+00   3.47056754361626E-03
      8.70140830156294E-04   4.34070837377256E-03  -1.46779217650223E-27   0.00000000000000E+00   0.00000000000000E+00
      0.00000000000000E+00   0.00000000000000E+00  -4.99694874768937E-11  -4.34070832380308E-03  -4.34070837377256E-03
     -1.27739289466487E-29
      4.03333333333334E-01
      6.05000000000000E+00   6.05000000000000E+00   0.00000000000000E+00   0.00000000000000E+00   3.83564707775878E-03
      8.81114143590711E-04   4.71676122134949E-03   3.44329964253926E-27   0.00000000000000E+00   0.00000000000000E+00
      0.00000000000000E+00   0.00000000000000E+00  -5.73550525952960E-11  -4.71676116399443E-03  -4.71676122134948E-03
      2.51607691373384E-30
      4.13333333333334E-01
      6.20000000000000E+00   6.20000000000000E+00   0.00000000000000E+00   0.00000000000000E+00   4.22299235998677E-03
      8.91362749630723E-04   5.11435510961750E-03  -1.31905332202497E-27   0.00000000000000E+00   0.00000000000000E+00
      0.00000000000000E+00   0.00000000000000E+00  -6.51894240197649E-11  -5.11435504442806E-03  -5.11435510961748E-03
     -7.45145855221176E-30
      4.23333333333334E-01
      6.35000000000000E+00   6.35000000000000E+00   0.00000000000000E+00   0.00000000000000E+00   4.63260729140962E-03
      9.00934618033508E-04   5.53354190944313E-03   7.65661559287006E-28   0.00000000000000E+00   0.00000000000000E+00
      0.00000000000000E+00   0.00000000000000E+00  -7.34389773342635E-11  -5.53354183600411E-03  -5.53354190944308E-03
      2.04189318768400E-29
      4.33333333333334E-01
      6.50000000000000E+00   6.50000000000000E+00   0.00000000000000E+00   0.00000000000000E+00   5.06440275262073E-03
      9.09875030165856E-04   5.97427778278658E-03   8.53288776417236E-28   0.00000000000000E+00   0.00000000000000E+00
      0.00000000000000E+00   0.00000000000000E+00  -8.20707930192342E-11  -5.97427770071576E-03  -5.97427778278655E-03
     -2.55478578932975E-29
      4.43333333333334E-01
      6.65000000000000E+00   6.65000000000000E+00   0.00000000000000E+00   0.00000000000000E+00   5.51819615048806E-03
      9.18226927221405E-04   6.43642307770947E-03  -1.01400318928199E-27   0.00000000000000E+00   0.00000000000000E+00
      0.00000000000000E+00   0.00000000000000E+00  -9.10582263945316E-11  -6.43642298665122E-03  -6.43642307770945E-03
      1.23868401906897E-29
      4.53333333333334E-01
      6.80000000000000E+00   6.80000000000000E+00   0.00000000000000E+00   0.00000000000000E+00   5.99371337265749E-03
      9.26031126386076E-04   6.91974449904356E-03   1.77838251706488E-27   0.00000000000000E+00   0.00000000000000E+00
      0.00000000000000E+00   0.00000000000000E+00  -1.00385401076229E-10  -6.91974439865815E-03  -6.91974449904355E-03
      3.87088755959053E-31
      4.63333333333334E-01
      6.95000000000000E+00   6.95000000000000E+00   0.00000000000000E+00   0.00000000000000E+00   6.49059346851394E-03
      9.33326438112593E-04   7.42391990662654E-03  -9.82005464992520E-27   0.00000000000000E+00   0.00000000000000E+00
      0.00000000000000E+00   0.00000000000000E+00  -1.10045882504645E-10  -7.42391979658064E-03  -7.42391990662652E-03
      8.70949700907868E-30
      4.73333333333334E-01
      7.10000000000000E+00   7.10000000000000E+00   0.00000000000000E+00   0.00000000000000E+00   7.00839599942658E-03
      9.40149714797607E-04   7.94854571422419E-03  -1.32894827834917E-27   0.00000000000000E+00   0.00000000000000E+00
      0.00000000000000E+00   0.00000000000000E+00  -1.19567687325784E-10  -7.94854559465647E-03  -7.94854571422416E-03
      1.25803845686692E-30
      4.83333333333334E-01
      7.25000000000000E+00   7.25000000000000E+00   0.00000000000000E+00   0.00000000000000E+00   7.54661084867016E-03
      9.46535853803588E-04   8.49314670247375E-03   1.13658935968477E-28   0.00000000000000E+00   0.00000000000000E+00
      0.00000000000000E+00   0.00000000000000E+00  -1.28980392888872E-10  -8.49314657349334E-03  -8.49314670247373E-03
      3.50315324142943E-29
      4.93333333333334E-01
      7.40000000000000E+00   7.40000000000000E+00   0.00000000000000E+00   0.00000000000000E+00   8.10466999028766E-03
      9.52517776178091E-04   9.05718776646575E-03  -6.51978430271282E-27   0.00000000000000E+00   0.00000000000000E+00
      0.00000000000000E+00   0.00000000000000E+00   1.02528404246448E-09  -9.05718879174976E-03  -9.05718776646572E-03
      7.74177511918105E-31
      5.03333333333334E-01
      7.55000000000000E+00   7.55000000000000E+00   0.00000000000000E+00   0.00000000000000E+00   8.68196045776299E-03
      9.58126396923257E-04   9.64008685468624E-03   1.74903635075373E-27   0.00000000000000E+00   0.00000000000000E+00
      0.00000000000000E+00   0.00000000000000E+00   7.32531485002097E-08  -9.64016010783468E-03  -9.64008685468618E-03
      1.60641833723007E-29
      5.13333333333334E-01
      7.70000000000000E+00   7.70000000000000E+00   0.00000000000000E+00   0.00000000000000E+00   9.27783721042189E-03
      9.63390596778127E-04   1.02412278072000E-02   1.98784592013322E-27   0.00000000000000E+00   0.00000000000000E+00
      0.00000000000000E+00   0.00000000000000E+00   8.24207179336787E-07  -1.02420520143794E-02  -1.02412278072000E-02
      2.18705147116865E-29
      5.23333333333334E-01
      7.85000000000000E+00   7.85000000000000E+00   0.00000000000000E+00   0.00000000000000E+00   9.89163573430307E-03
      9.68337211480339E-04   1.08599729457834E-02  -4.03353741623507E-27   0.00000000000000E+00   0.00000000000000E+00
      0.00000000000000E+00   0.00000000000000E+00   4.06612580421764E-06  -1.08640390715876E-02  -1.08599729457834E-02
      1.70319052621983E-29
      5.33333333333334E-01
      8.00000000000001E+00   8.00000000000001E+00   0.00000000000000E+00   0.00000000000000E+00   1.05226847486816E-02
      9.72991060056050E-04   1.14956758087376E-02   5.72637331823300E-27   0.00000000000000E+00   0.00000000000000E+00
      0.00000000000000E+00   0.00000000000000E+00   1.27152809279951E-05  -1.15083910896655E-02  -1.14956758087375E-02
     -9.77399108796608E-30
      5.43333333333334E-01
      8.15000000000001E+00   8.15000000000001E+00   0.00000000000000E+00   0.00000000000000E+00   1.11703196352552E-02
      9.77374985614090E-04   1.21476946208693E-02   2.46086837991518E-27   0.00000000000000E+00   0.00000000000000E+00
      0.00000000000000E+00   0.00000000000000E+00   3.00989821557525E-05  -1.21777936030250E-02  -1.21476946208693E-02
      1.47093727264440E-29
      5.53333333333334E-01
      8.30000000000000E+00   8.30000000000000E+00   0.00000000000000E+00   0.00000000000000E+00   1.18338930685933E-02
      9.81509919748420E-04   1.28154029883417E-02   1.21925216351982E-26   0.00000000000000E+00   0.00000000000000E+00
      0.00000000000000E+00   0.00000000000000E+00   5.93746466928933E-05  -1.28747776350346E-02  -1.28154029883417E-02
      1.48061449154338E-29
      5.63333333333334E-01
      8.45000000000000E+00   8.45000000000000E+00   0.00000000000000E+00   0.00000000000000E+00   1.25127834134720E-02
      9.85414959706644E-04   1.34981983731786E-02  -3.47477479700818E-27   0.00000000000000E+00   0.00000000000000E+00
      0.00000000000000E+00   0.00000000000000E+00   1.03277915731791E-04  -1.36014762889104E-02  -1.34981983731786E-02
      2.90316566969289E-30
      5.73333333333334E-01
      8.60000000000000E+00   8.60000000000000E+00   0.00000000000000E+00   0.00000000000000E+00   1.32064016011367E-02
      9.89107455299950E-04   1.41955090564366E-02   2.40740174549834E-27   0.00000000000000E+00   0.00000000000000E+00
      0.00000000000000E+00   0.00000000000000E+00   1.64099193826110E-04  -1.43596082502627E-02  -1.41955090564366E-02
      2.70962129171337E-30
      5.83333333333334E-01
      8.75000000000001E+00   8.75000000000001E+00   0.00000000000000E+00   0.00000000000000E+00   1.39141956982978E-02
      9.92603114649586E-04   1.49067988129473E-02   4.74527267320753E-27   0.00000000000000E+00   0.00000000000000E+00
      0.00000000000000E+00   0.00000000000000E+00   2.43758263196461E-04  -1.51505570761438E-02  -1.49067988129473E-02
     -4.35474850453934E-30
      5.93333333333334E-01
      8.90000000000001E+00   8.90000000000001E+00   0.00000000000000E+00   0.00000000000000E+00   1.46356535864962E-02
      9.95916123771108E-04   1.56315697102673E-02   5.25753625562484E-27   0.00000000000000E+00   0.00000000000000E+00
      0.00000000000000E+00   0.00000000000000E+00   3.43900189160089E-04  -1.59754698994273E-02  -1.56315697102673E-02
     -3.87088755959053E-31
      6.03333333333334E-01
      9.05000000000001E+00   9.05000000000001E+00   0.00000000000000E+00   0.00000000000000E+00   1.53703036158416E-02
      9.99059279053807E-04   1.63693628948954E-02   5.26508448636604E-27   0.00000000000000E+00   0.00000000000000E+00
      0.00000000000000E+00   0.00000000000000E+00   4.65980549429994E-04  -1.68353434443253E-02  -1.63693628948953E-02
     -1.11288017338228E-29
      6.13333333333334E-01
      9.20000000000001E+00   9.20000000000001E+00   0.00000000000000E+00   0.00000000000000E+00   1.61177131658593E-02
      1.00204413075515E-03   1.71197572966144E-02   4.58395343416160E-27   0.00000000000000E+00   0.00000000000000E+00
      0.00000000000000E+00   0.00000000000000E+00   6.11331428370612E-04  -1.77310887249850E-02  -1.71197572966144E-02
      4.16120412655981E-30
      6.23333333333334E-01
      9.35000000000001E+00   9.35000000000001E+00   0.00000000000000E+00   0.00000000000000E+00   1.68774851368836E-02
      1.00488113481968E-03   1.78823662717032E-02  -3.61734442443735E-27   0.00000000000000E+00   0.00000000000000E+00
      0.00000000000000E+00   0.00000000000000E+00   7.81209055673344E-04  -1.86635753273766E-02  -1.78823662717032E-02
     -4.83860944948816E-30
      6.33333333333334E-01
      9.50000000000001E+00   9.50000000000001E+00   0.00000000000000E+00   0.00000000000000E+00   1.76492525378680E-02
      1.00757980921944E-03   1.86568323470874E-02   9.62363129932323E-27   0.00000000000000E+00   0.00000000000000E+00
      0.00000000000000E+00   0.00000000000000E+00   9.76827488997922E-04  -1.96336598360853E-02  -1.86568323470874E-02
     -2.94187454528880E-29
      6.43333333333334E-01
      9.65000000000001E+00   9.65000000000001E+00   0.00000000000000E+00   0.00000000000000E+00   1.84326715167903E-02
      1.01014888964975E-03   1.94428204064401E-02  -3.68748006840768E-27   0.00000000000000E+00   0.00000000000000E+00
      0.00000000000000E+00   0.00000000000000E+00   1.19938736100843E-03  -2.06422077674484E-02  -1.94428204064400E-02
     -1.35481064585668E-30
      6.53333333333334E-01
      9.80000000000001E+00   9.80000000000001E+00   0.00000000000000E+00   0.00000000000000E+00   1.92274133755403E-02
      1.01259647813771E-03   2.02400098536780E-02   3.23911032377086E-27   0.00000000000000E+00   0.00000000000000E+00
      0.00000000000000E+00   0.00000000000000E+00   1.45011207725604E-03  -2.16901219309340E-02  -2.02400098536779E-02
     -2.20640590896660E-29
      6.63333333333334E-01
      9.95000000000001E+00   9.95000000000001E+00   0.00000000000000E+00   0.00000000000000E+00   2.00331562903260E-02
      1.01493017740042E-03   2.10480864677264E-02  -9.90240778275549E-27   0.00000000000000E+00   0.00000000000000E+00
      0.00000000000000E+00   0.00000000000000E+00   1.73029256529349E-03  -2.27783790330199E-02  -2.10480864677264E-02
      2.41930472474408E-30
      6.73333333333334E-01
      1.01000000000000E+01   1.01000000000000E+01   0.00000000000000E+00   0.00000000000000E+00   2.08495775630188E-02
      1.01715720402212E-03   2.18667347670410E-02  -5.95821529000522E-27   0.00000000000000E+00   0.00000000000000E+00
      0.00000000000000E+00   0.00000000000000E+00   2.04132609105828E-03  -2.39080608580991E-02  -2.18667347670408E-02
     -2.37091863024920E-29
      6.83333333333334E-01