DF-ISE text

Info {
  version   = 1.0
  type      = xyplot
  datasets  = [
    "time"
    "ntype OuterVoltage" "ntype InnerVoltage" "ntype QuasiFermiPotential" "ntype DisplacementCurrent" "ntype eCurrent"
    "ntype hCurrent" "ntype TotalCurrent" "ntype Charge" "ptype OuterVoltage" "ptype InnerVoltage"
    "ptype QuasiFermiPotential" "ptype DisplacementCurrent" "ptype eCurrent" "ptype hCurrent" "ptype TotalCurrent"
    "ptype Charge" ]
  functions = [
    Time
    OuterVoltage InnerVoltage QuasiFermiPotential DisplacementCurrent eCurrent
    hCurrent TotalCurrent Charge OuterVoltage InnerVoltage
    QuasiFermiPotential DisplacementCurrent eCurrent hCurrent TotalCurrent
    Charge ]
}

Data {
      0.00000000000000E+00
      0.00000000000000E+00   0.00000000000000E+00   0.00000000000000E+00   0.00000000000000E+00  -2.13922607828331E-23
      2.13921958581744E-23  -6.49246586798271E-29  -7.17652205350140E-28   0.00000000000000E+00   0.00000000000000E+00
      0.00000000000000E+00   0.00000000000000E+00  -1.88428104962742E-24  -6.82509816088354E-19  -6.82511700369403E-19
     -3.87088755959053E-31
      0.00000000000000E+00
      0.00000000000000E+00   0.00000000000000E+00   0.00000000000000E+00   0.00000000000000E+00  -9.66242207111726E-22
      6.21058043744438E-22  -3.45184163367288E-22  -2.09435992156803E-27   0.00000000000000E+00   0.00000000000000E+00
      0.00000000000000E+00   0.00000000000000E+00  -1.01425066442775E-24  -6.82509888157862E-19  -6.82510902408527E-19
      2.12898815777479E-30
      0.00000000000000E+00
      0.00000000000000E+00   0.00000000000000E+00   0.00000000000000E+00   0.00000000000000E+00  -1.79630985939642E-23
     -1.14959880822132E-23  -2.94590866761774E-23   2.35445879368771E-27   0.00000000000000E+00   0.00000000000000E+00
      0.00000000000000E+00   0.00000000000000E+00  -1.41211178399530E-24   6.97465975370652E-21   6.97324764192252E-21
     -5.08053992196256E-31
      5.00000000000000E-03
      7.50000000000000E-02   7.50000000000000E-02   0.00000000000000E+00   0.00000000000000E+00   1.30030167794562E-09
      1.35419314527697E-10   1.43572099247332E-09   1.28107335648148E-28   0.00000000000000E+00   0.00000000000000E+00
      0.00000000000000E+00   0.00000000000000E+00  -2.81216400651418E-13  -1.43543977607502E-09  -1.43572099247567E-09
     -6.50792970956157E-30
      1.33333333333333E-02
      2.00000000000000E-01   2.00000000000000E-01   0.00000000000000E+00   0.00000000000000E+00   2.76374938072530E-09
      2.69306129189448E-10   3.03305550991475E-09   2.70340162310680E-28   0.00000000000000E+00   0.00000000000000E+00
      0.00000000000000E+00   0.00000000000000E+00  -3.05238956405763E-13  -3.03275027095294E-09  -3.03305550990935E-09
      1.06449407888739E-30
      2.33333333333333E-02
      3.50000000000000E-01   3.50000000000000E-01   0.00000000000000E+00   0.00000000000000E+00   4.35519858799642E-09
      4.01908460314050E-10   4.75710704831047E-09   2.45514516492366E-28   0.00000000000000E+00   0.00000000000000E+00
      0.00000000000000E+00   0.00000000000000E+00  -3.08558092233210E-13  -4.75679849022171E-09  -4.75710704831395E-09
      3.50799185087891E-30
      3.33333333333333E-02
      5.00000000000000E-01   5.00000000000000E-01   0.00000000000000E+00   0.00000000000000E+00   5.92409768404532E-09
      5.23725397559679E-10   6.44782308160500E-09  -2.00205546072337E-28   0.00000000000000E+00   0.00000000000000E+00
      0.00000000000000E+00   0.00000000000000E+00  -3.11698701016211E-13  -6.44751138290974E-09  -6.44782308161075E-09
     -9.19335795402750E-31
      4.33333333333333E-02
      6.50000000000000E-01   6.50000000000000E-01   0.00000000000000E+00   0.00000000000000E+00   7.14832412259824E-09
      6.14890545937665E-10   7.76321466853590E-09   1.58627762539657E-28   0.00000000000000E+00   0.00000000000000E+00
      0.00000000000000E+00   0.00000000000000E+00  -3.14851751501834E-13  -7.76289981678366E-09  -7.76321466853516E-09
      7.25791417423224E-31
      5.33333333333333E-02
      8.00000000000000E-01   8.00000000000000E-01   0.00000000000000E+00   0.00000000000000E+00   8.23130288256903E-09
      6.94063229236468E-10   8.92536611180550E-09   2.08991449638836E-28   0.00000000000000E+00   0.00000000000000E+00
      0.00000000000000E+00   0.00000000000000E+00  -3.17982633441650E-13  -8.92504812916951E-09  -8.92536611180295E-09
      5.20150515819977E-30
      6.33333333333333E-02
      9.50000000000000E-01   9.50000000000000E-01   0.00000000000000E+00   0.00000000000000E+00   9.66192051657506E-09
      7.96358271422178E-10   1.04582787879972E-08   2.97324517823328E-28   0.00000000000000E+00   0.00000000000000E+00
      0.00000000000000E+00   0.00000000000000E+00  -3.21056462276163E-13  -1.04579577315384E-08  -1.04582787880007E-08
      1.98382987429014E-30
      7.33333333333333E-02
      1.10000000000000E+00   1.10000000000000E+00   0.00000000000000E+00   0.00000000000000E+00   1.10252075709274E-08
      8.95728825378864E-10   1.19209363963062E-08  -4.69435084494803E-28   0.00000000000000E+00   0.00000000000000E+00
      0.00000000000000E+00   0.00000000000000E+00  -3.23944685080167E-13  -1.19206124516230E-08  -1.19209363963081E-08
      3.82250146509564E-30
      8.33333333333333E-02
      1.25000000000000E+00   1.25000000000000E+00   0.00000000000000E+00   0.00000000000000E+00   1.20615495032658E-08
      9.83320769819834E-10   1.30448702730856E-08   1.79213021616324E-28   0.00000000000000E+00   0.00000000000000E+00
      0.00000000000000E+00   0.00000000000000E+00  -3.26574862295080E-13  -1.30445436982196E-08  -1.30448702730819E-08
     -2.85477957519801E-30
      9.33333333333333E-02
      1.40000000000000E+00   1.40000000000000E+00   0.00000000000000E+00   0.00000000000000E+00   1.31351712063048E-08
      1.10184191665642E-09   1.42370131229612E-08  -1.07365114727055E-27   0.00000000000000E+00   0.00000000000000E+00
      0.00000000000000E+00   0.00000000000000E+00  -3.28996522419143E-13  -1.42366841264341E-08  -1.42370131229565E-08
     -2.17737425226967E-30
      1.03333333333333E-01
      1.55000000000000E+00   1.55000000000000E+00   0.00000000000000E+00   0.00000000000000E+00   1.44271599792696E-08
      1.32072146799114E-09   1.57478814472608E-08  -8.70991282707825E-29   0.00000000000000E+00   0.00000000000000E+00
      0.00000000000000E+00   0.00000000000000E+00  -3.31263842969503E-13  -1.57475501834134E-08  -1.57478814472564E-08
     -3.38702661464171E-30
      1.13333333333333E-01
      1.70000000000000E+00   1.70000000000000E+00   0.00000000000000E+00   0.00000000000000E+00   1.57278854445004E-08
      1.81465069685844E-09   1.75425361413588E-08   6.64497576189106E-28   0.00000000000000E+00   0.00000000000000E+00
      0.00000000000000E+00   0.00000000000000E+00  -3.33401201470858E-13  -1.75422027401599E-08  -1.75425361413614E-08
     -1.88705768530038E-30
      1.23333333333333E-01
      1.85000000000000E+00   1.85000000000000E+00   0.00000000000000E+00   0.00000000000000E+00   1.68626499548076E-08
      3.13346764515845E-09   1.99961175999660E-08   4.27385300280571E-30   0.00000000000000E+00   0.00000000000000E+00
      0.00000000000000E+00   0.00000000000000E+00  -3.35489541944171E-13  -1.99957821104204E-08  -1.99961175999623E-08
      2.95155176418778E-30
      1.33333333333333E-01
      2.00000000000000E+00   2.00000000000000E+00   0.00000000000000E+00   0.00000000000000E+00   1.81539160328573E-08
      6.83915293461279E-09   2.49930689674701E-08  -1.39901134317776E-27   0.00000000000000E+00   0.00000000000000E+00
      0.00000000000000E+00   0.00000000000000E+00  -3.37821760894308E-13  -2.49927311457119E-08  -2.49930689674728E-08
      5.41924258342674E-30
      1.43333333333333E-01
      2.15000000000000E+00   2.15000000000000E+00   0.00000000000000E+00   0.00000000000000E+00   1.91944224036034E-08
      1.69463000959763E-08   3.61407224995797E-08  -1.56536576018207E-27   0.00000000000000E+00   0.00000000000000E+00
      0.00000000000000E+00   0.00000000000000E+00  -3.40950610967513E-13  -3.61403815489683E-08  -3.61407224995792E-08
     -6.94340456001550E-30
      1.53333333333333E-01
      2.30000000000000E+00   2.30000000000000E+00   0.00000000000000E+00   0.00000000000000E+00   2.07369216374001E-08
      4.35266514525688E-08   6.42635730899690E-08  -1.40504599640054E-27   0.00000000000000E+00   0.00000000000000E+00
      0.00000000000000E+00   0.00000000000000E+00  -3.46472414066791E-13  -6.42632266175611E-08  -6.42635730899751E-08
      2.12898815777479E-30
      1.63333333333333E-01
      2.45000000000000E+00   2.45000000000000E+00   0.00000000000000E+00   0.00000000000000E+00   2.44949090812015E-08
      1.09873628472296E-07   1.34368537553498E-07   4.98286049370102E-29   0.00000000000000E+00   0.00000000000000E+00
      0.00000000000000E+00   0.00000000000000E+00  -3.58061425563147E-13  -1.34368179492075E-07  -1.34368537553500E-07
      3.48379880363147E-30
      1.73333333333333E-01
      2.60000000000000E+00   2.60000000000000E+00   0.00000000000000E+00   0.00000000000000E+00   3.37808704773270E-08
      2.65222815113463E-07   2.99003685590790E-07   1.95255128833011E-27   0.00000000000000E+00   0.00000000000000E+00
      0.00000000000000E+00   0.00000000000000E+00  -3.83444087553050E-13  -2.99003302146708E-07  -2.99003685590796E-07
     -6.53212275680901E-31
      1.83333333333333E-01
      2.75000000000000E+00   2.75000000000000E+00   0.00000000000000E+00   0.00000000000000E+00   5.73749213275638E-08
      6.04182144675082E-07   6.61557066002646E-07  -9.50387571544840E-28   0.00000000000000E+00   0.00000000000000E+00
      0.00000000000000E+00   0.00000000000000E+00  -4.37840086444155E-13  -6.61556628162557E-07  -6.61557066002644E-07
     -5.08053992196256E-31
      1.93333333333333E-01
      2.90000000000000E+00   2.90000000000000E+00   0.00000000000000E+00   0.00000000000000E+00   1.15662427002831E-07
      1.28984225214817E-06   1.40550467915100E-06   1.00881982890922E-27   0.00000000000000E+00   0.00000000000000E+00
      0.00000000000000E+00   0.00000000000000E+00  -5.48335008252022E-13  -1.40550413081601E-06  -1.40550467915101E-06
     -3.94346670133285E-30
      2.03333333333333E-01
      3.05000000000000E+00   3.05000000000000E+00   0.00000000000000E+00   0.00000000000000E+00   2.49091576541673E-07
      2.56955587408638E-06   2.81864745062805E-06   8.17809672628865E-28   0.00000000000000E+00   0.00000000000000E+00
      0.00000000000000E+00   0.00000000000000E+00  -7.57656132108021E-13  -2.81864669297193E-06  -2.81864745062806E-06
     -1.30642455136180E-30
      2.13333333333333E-01
      3.20000000000000E+00   3.20000000000000E+00   0.00000000000000E+00   0.00000000000000E+00   5.26138901685320E-07
      4.76344394115273E-06   5.28958284283805E-06   2.26344101785244E-28   0.00000000000000E+00   0.00000000000000E+00
      0.00000000000000E+00   0.00000000000000E+00  -1.12420024063019E-12  -5.28958171863783E-06  -5.28958284283807E-06
      1.23384540961948E-30
      2.23333333333333E-01
      3.35000000000000E+00   3.35000000000000E+00   0.00000000000000E+00   0.00000000000000E+00   1.04484314633308E-06
      8.20964391864842E-06   9.25448706498150E-06   1.34313750055979E-27   0.00000000000000E+00   0.00000000000000E+00
      0.00000000000000E+00   0.00000000000000E+00  -1.71528292132315E-12  -9.25448534969860E-06  -9.25448706498152E-06
      4.35474850453934E-31
      2.33333333333333E-01
      3.50000000000000E+00   3.50000000000000E+00   0.00000000000000E+00   0.00000000000000E+00   1.92316862002084E-06
      1.31796757792268E-05   1.51028443992477E-05   1.29112244897780E-27   0.00000000000000E+00   0.00000000000000E+00
      0.00000000000000E+00   0.00000000000000E+00  -2.59478694286091E-12  -1.51028418044607E-05  -1.51028443992477E-05
      3.87088755959053E-31
      2.43333333333333E-01
      3.65000000000000E+00   3.65000000000000E+00   0.00000000000000E+00   0.00000000000000E+00   3.28084160423265E-06
      1.98098159581687E-05   2.30906575624014E-05   4.01217495551558E-28   0.00000000000000E+00   0.00000000000000E+00
      0.00000000000000E+00   0.00000000000000E+00  -3.81183052436917E-12  -2.30906537505708E-05  -2.30906575624013E-05
      6.94340456001550E-30
      2.53333333333333E-01
      3.80000000000000E+00   3.80000000000000E+00   0.00000000000000E+00   0.00000000000000E+00   5.22247947913750E-06
      2.80861222667077E-05   3.33086017458453E-05   4.08765726292760E-28   0.00000000000000E+00   0.00000000000000E+00
      0.00000000000000E+00   0.00000000000000E+00  -5.39683316435888E-12  -3.33085963490121E-05  -3.33086017458453E-05
      3.91927365408541E-30
      2.63333333333333E-01
      3.95000000000000E+00   3.95000000000000E+00   0.00000000000000E+00   0.00000000000000E+00   7.82939388991878E-06
      3.78778388586173E-05   4.57072327485361E-05  -2.07929563872855E-27   0.00000000000000E+00   0.00000000000000E+00
      0.00000000000000E+00   0.00000000000000E+00  -7.36504497879530E-12  -4.57072253834913E-05  -4.57072327485362E-05
      2.66123519721849E-30
      2.73333333333333E-01
      4.10000000000000E+00   4.10000000000000E+00   0.00000000000000E+00   0.00000000000000E+00   1.11599486080315E-05
      4.89873221330788E-05   6.01472707411102E-05  -5.76133227150555E-28   0.00000000000000E+00   0.00000000000000E+00
      0.00000000000000E+00   0.00000000000000E+00  -9.72288968040234E-12  -6.01472610182200E-05  -6.01472707411096E-05
      1.98382987429014E-30
      2.83333333333333E-01
      4.25000000000000E+00   4.25000000000000E+00   0.00000000000000E+00   0.00000000000000E+00   1.52542048724011E-05
      6.11919575045640E-05   7.64461623769650E-05   1.27145350156563E-27   0.00000000000000E+00   0.00000000000000E+00
      0.00000000000000E+00   0.00000000000000E+00  -1.24729320258528E-11  -7.64461499040332E-05  -7.64461623769652E-05
     -9.91914937145072E-31
      2.93333333333333E-01
      4.40000000000000E+00   4.40000000000000E+00   0.00000000000000E+00   0.00000000000000E+00   2.01393332763001E-05
      7.42710404692239E-05   9.44103737455239E-05   1.25167568544084E-27   0.00000000000000E+00   0.00000000000000E+00
      0.00000000000000E+00   0.00000000000000E+00  -1.56159646255185E-11  -9.44103581295594E-05  -9.44103737455240E-05
      4.11281803206493E-30
      3.03333333333333E-01
      4.55000000000000E+00   4.55000000000000E+00   0.00000000000000E+00   0.00000000000000E+00   2.58340969159234E-05
      8.80199574639285E-05   1.13854054379852E-04  -1.43710329606885E-27   0.00000000000000E+00   0.00000000000000E+00
      0.00000000000000E+00   0.00000000000000E+00  -1.91505692827554E-11  -1.13854035229282E-04  -1.13854054379852E-04
     -3.65315013436356E-30
      3.13333333333333E-01
      4.70000000000000E+00   4.70000000000000E+00   0.00000000000000E+00   0.00000000000000E+00   3.23521063671448E-05
      1.02256280730404E-04   1.34608387097549E-04  -3.69839113271627E-28   0.00000000000000E+00   0.00000000000000E+00
      0.00000000000000E+00   0.00000000000000E+00  -2.30712826430173E-11  -1.34608364026267E-04  -1.34608387097549E-04
     -1.98382987429014E-30
      3.23333333333333E-01
      4.85000000000000E+00   4.85000000000000E+00   0.00000000000000E+00   0.00000000000000E+00   3.97045821164632E-05
      1.16822655682694E-04   1.56527237799157E-04   1.21520466671533E-27   0.00000000000000E+00   0.00000000000000E+00
      0.00000000000000E+00   0.00000000000000E+00  -2.73669415375187E-11  -1.56527210432216E-04  -1.56527237799157E-04
      4.35474850453934E-31
      3.33333333333333E-01
      5.00000000000000E+00   5.00000000000000E+00   0.00000000000000E+00   0.00000000000000E+00   4.79037646236486E-05
      1.31589538748948E-04   1.79493303372597E-04   2.00115209611931E-27   0.00000000000000E+00   0.00000000000000E+00
      0.00000000000000E+00   0.00000000000000E+00  -3.20206173154356E-11  -1.79493271351979E-04  -1.79493303372596E-04
     -4.20959022105470E-30
      3.43333333333333E-01
      5.15000000000000E+00   5.15000000000000E+00   0.00000000000000E+00   0.00000000000000E+00   5.69695037840847E-05
      1.46463502959090E-04   2.03433006743175E-04   2.21342189266836E-27   0.00000000000000E+00   0.00000000000000E+00
      0.00000000000000E+00   0.00000000000000E+00  -3.70130852945364E-11  -2.03432969730090E-04  -2.03433006743175E-04
     -2.83058652795057E-30
      3.53333333333333E-01
      5.30000000000000E+00   5.30000000000000E+00   0.00000000000000E+00   0.00000000000000E+00   6.69387051873793E-05
      1.61400271810940E-04   2.28338976998320E-04   3.69645568893648E-27   0.00000000000000E+00   0.00000000000000E+00
      0.00000000000000E+00   0.00000000000000E+00  -4.23295182043368E-11  -2.28338934668801E-04  -2.28338976998319E-04
      2.70962129171337E-30
      3.63333333333334E-01
      5.45000000000000E+00   5.45000000000000E+00   0.00000000000000E+00   0.00000000000000E+00   7.78166810227647E-05
      1.76304112796201E-04   2.54120793818965E-04   1.28879991644204E-27   0.00000000000000E+00   0.00000000000000E+00
      0.00000000000000E+00   0.00000000000000E+00  -4.79295056867694E-11  -2.54120745889459E-04  -2.54120793818965E-04
      1.08868712613484E-30
      3.73333333333334E-01
      5.60000000000000E+00   5.60000000000000E+00   0.00000000000000E+00   0.00000000000000E+00   8.95629307791968E-05
      1.91015189181820E-04   2.80578119961017E-04  -2.72849186856637E-28   0.00000000000000E+00   0.00000000000000E+00
      0.00000000000000E+00   0.00000000000000E+00  -5.37418833352941E-11  -2.80578066219131E-04  -2.80578119961014E-04
      2.27414644125943E-30
      3.83333333333334E-01
      5.75000000000000E+00   5.75000000000000E+00   0.00000000000000E+00   0.00000000000000E+00   1.02158763336486E-04
      2.05443506263896E-04   3.07602269600382E-04  -4.55434114433073E-27   0.00000000000000E+00   0.00000000000000E+00
      0.00000000000000E+00   0.00000000000000E+00  -5.97119135926707E-11  -3.07602209888468E-04  -3.07602269600381E-04
      2.99993785868266E-30
      3.93333333333334E-01
      5.90000000000000E+00   5.90000000000000E+00   0.00000000000000E+00   0.00000000000000E+00   1.15598780571844E-04
      2.19538745674621E-04   3.35137526246465E-04   9.62689736070164E-28   0.00000000000000E+00   0.00000000000000E+00
      0.00000000000000E+00   0.00000000000000E+00  -6.57966420127819E-11  -3.35137460449824E-04  -3.35137526246466E-04
     -6.09664790635508E-30
      4.03333333333334E-01
      6.05000000000000E+00   6.05000000000000E+00   0.00000000000000E+00   0.00000000000000E+00   1.29883840035753E-04
      2.33269205794164E-04   3.63153045829916E-04   8.96424979659423E-28   0.00000000000000E+00   0.00000000000000E+00
      0.00000000000000E+00   0.00000000000000E+00  -7.19608238543787E-11  -3.63152973869094E-04  -3.63153045829918E-04
      2.78220043345569E-30
      4.13333333333334E-01
      6.20000000000000E+00   6.20000000000000E+00   0.00000000000000E+00   0.00000000000000E+00   1.45018071194521E-04
      2.46613978195490E-04   3.91632049390011E-04  -1.30998092930718E-27   0.00000000000000E+00   0.00000000000000E+00
      0.00000000000000E+00   0.00000000000000E+00  -7.81756277762221E-11  -3.91631971214382E-04  -3.91632049390010E-04
      1.59674111833109E-30
      4.23333333333334E-01
      6.35000000000000E+00   6.35000000000000E+00   0.00000000000000E+00   0.00000000000000E+00   1.61007420818784E-04
      2.59559121328963E-04   4.20566542147748E-04  -4.65762126303005E-27   0.00000000000000E+00   0.00000000000000E+00
      0.00000000000000E+00   0.00000000000000E+00  -8.44179122721166E-11  -4.20566457729833E-04  -4.20566542147745E-04
      1.28223150411436E-30
      4.33333333333334E-01
      6.50000000000000E+00   6.50000000000000E+00   0.00000000000000E+00   0.00000000000000E+00   1.77858988169804E-04
      2.72095923096876E-04   4.49954911266681E-04  -7.94064196755501E-28   0.00000000000000E+00   0.00000000000000E+00
      0.00000000000000E+00   0.00000000000000E+00  -9.06697035011392E-11  -4.49954820596975E-04  -4.49954911266679E-04
     -2.05640901603247E-30
      4.43333333333334E-01
      6.65000000000000E+00   6.65000000000000E+00   0.00000000000000E+00   0.00000000000000E+00   1.95580573330431E-04
      2.84220015756075E-04   4.79800589086506E-04  -4.50355993815835E-27   0.00000000000000E+00   0.00000000000000E+00
      0.00000000000000E+00   0.00000000000000E+00  -9.69176272017773E-11  -4.79800492168879E-04  -4.79800589086506E-04
      6.07245485910764E-30
      4.53333333333334E-01
      6.80000000000000E+00   6.80000000000000E+00   0.00000000000000E+00   0.00000000000000E+00   2.14180424744217E-04
      2.95930683568927E-04   5.10111108313144E-04  -7.52065066733944E-28   0.00000000000000E+00   0.00000000000000E+00
      0.00000000000000E+00   0.00000000000000E+00  -1.03152265390269E-10  -5.10111005160877E-04  -5.10111108313142E-04
     -3.31444747289939E-30
      4.63333333333334E-01
      6.95000000000000E+00   6.95000000000000E+00   0.00000000000000E+00   0.00000000000000E+00   2.33667135324892E-04
      3.07230210789217E-04   5.40897346114110E-04   1.51329929837467E-27   0.00000000000000E+00   0.00000000000000E+00
      0.00000000000000E+00   0.00000000000000E+00  -1.09367465977065E-10  -5.40897236746644E-04  -5.40897346114110E-04
      9.67721889897631E-31
      4.73333333333334E-01
      7.10000000000000E+00   7.10000000000000E+00   0.00000000000000E+00   0.00000000000000E+00   2.54049617273533E-04
      3.18123282332687E-04   5.72172899606220E-04   2.34479013922196E-28   0.00000000000000E+00   0.00000000000000E+00
      0.00000000000000E+00   0.00000000000000E+00  -1.15559233465526E-10  -5.72172784046988E-04  -5.72172899606221E-04
     -5.80633133938579E-31
      4.83333333333334E-01
      7.25000000000000E+00   7.25000000000000E+00   0.00000000000000E+00   0.00000000000000E+00   2.75337107383244E-04
      3.28616461225927E-04   6.03953568609171E-04  -2.22469585268566E-27   0.00000000000000E+00   0.00000000000000E+00
      0.00000000000000E+00   0.00000000000000E+00  -1.21578235678667E-10  -6.03953447030932E-04  -6.03953568609168E-04
      2.67333172084221E-30
      4.93333333333334E-01
      7.40000000000000E+00   7.40000000000000E+00   0.00000000000000E+00   0.00000000000000E+00   2.97539175255398E-04
      3.38717750386738E-04   6.36256925642136E-04  -4.96392943422990E-28   0.00000000000000E+00   0.00000000000000E+00
      0.00000000000000E+00   0.00000000000000E+00  -1.27463546947494E-10  -6.36256798178589E-04  -6.36256925642136E-04
      6.41115752057181E-31
      5.03333333333334E-01
      7.55000000000000E+00   7.55000000000000E+00   0.00000000000000E+00   0.00000000000000E+00   3.20665719383771E-04
      3.48436234165365E-04   6.69101953549136E-04  -1.52856511118780E-27   0.00000000000000E+00   0.00000000000000E+00
      0.00000000000000E+00   0.00000000000000E+00  -1.33314575224044E-10  -6.69101820234561E-04  -6.69101953549136E-04
      1.47577588209389E-30
      5.13333333333334E-01
      7.70000000000000E+00   7.70000000000000E+00   0.00000000000000E+00   0.00000000000000E+00   3.44726943672001E-04
      3.57781789660553E-04   7.02508733332553E-04   4.05734337472655E-27   0.00000000000000E+00   0.00000000000000E+00
      0.00000000000000E+00   0.00000000000000E+00  -1.39135296975905E-10  -7.02508594197254E-04  -7.02508733332551E-04
     -3.70153622885844E-30
      5.23333333333334E-01
      7.85000000000000E+00   7.85000000000000E+00   0.00000000000000E+00   0.00000000000000E+00   3.69733312039970E-04
      3.66764856444796E-04   7.36498168484766E-04   1.46484062473804E-27   0.00000000000000E+00   0.00000000000000E+00
      0.00000000000000E+00   0.00000000000000E+00  -1.44929825325262E-10  -7.36498023554944E-04  -7.36498168484769E-04
     -2.18947077589339E-30
      5.33333333333334E-01
      8.00000000000001E+00   8.00000000000001E+00   0.00000000000000E+00   0.00000000000000E+00   3.95695482248718E-04
      3.75396253883517E-04   7.71091736132235E-04  -3.72800342254714E-27   0.00000000000000E+00   0.00000000000000E+00
      0.00000000000000E+00   0.00000000000000E+00  -1.50702423717777E-10  -7.71091585429813E-04  -7.71091736132237E-04
     -1.05239755526367E-30
      5.43333333333334E-01
      8.15000000000001E+00   8.15000000000001E+00   0.00000000000000E+00   0.00000000000000E+00   4.22624222003100E-04
      3.83687036770297E-04   8.06311258773397E-04   2.53852806157947E-27   0.00000000000000E+00   0.00000000000000E+00
      0.00000000000000E+00   0.00000000000000E+00  -1.56457362543990E-10  -8.06311102316031E-04  -8.06311258773394E-04
     -8.22563606412987E-31
      5.53333333333334E-01
      8.30000000000000E+00   8.30000000000000E+00   0.00000000000000E+00   0.00000000000000E+00   4.50530312051245E-04
      3.91648381103571E-04   8.42178693154816E-04   1.68833599520990E-27   0.00000000000000E+00   0.00000000000000E+00
      0.00000000000000E+00   0.00000000000000E+00  -1.62198787247866E-10  -8.42178530956026E-04  -8.42178693154814E-04
      4.71764421325095E-31
      5.63333333333334E-01
      8.45000000000000E+00   8.45000000000000E+00   0.00000000000000E+00   0.00000000000000E+00   4.79424441365395E-04
      3.99291493371315E-04   8.78715934736710E-04  -3.16566023232763E-27   0.00000000000000E+00   0.00000000000000E+00
      0.00000000000000E+00   0.00000000000000E+00  -1.67930308650721E-10  -8.78715766806402E-04  -8.78715934736711E-04
      4.54829288251887E-30
      5.73333333333334E-01
      8.60000000000000E+00   8.60000000000000E+00   0.00000000000000E+00   0.00000000000000E+00   5.09317098459370E-04
      4.06627538874446E-04   9.15944637333816E-04  -2.68760561871820E-28   0.00000000000000E+00   0.00000000000000E+00
      0.00000000000000E+00   0.00000000000000E+00  -1.73649994148426E-10  -9.15944463683821E-04  -9.15944637333815E-04
      8.83046224531589E-31
      5.83333333333334E-01
      8.75000000000001E+00   8.75000000000001E+00   0.00000000000000E+00   0.00000000000000E+00   5.40218463788067E-04
      4.13667584578023E-04   9.53886048366090E-04   4.33849077678906E-27   0.00000000000000E+00   0.00000000000000E+00
      0.00000000000000E+00   0.00000000000000E+00  -1.79307234704688E-10  -9.53885869058854E-04  -9.53886048366089E-04
      3.10880657129614E-30
      5.93333333333334E-01
      8.90000000000001E+00   8.90000000000001E+00   0.00000000000000E+00   0.00000000000000E+00   5.72138306739978E-04
      4.20422553433582E-04   9.92560860173560E-04  -9.57754354431686E-28   0.00000000000000E+00   0.00000000000000E+00
      0.00000000000000E+00   0.00000000000000E+00  -1.84553605674688E-10  -9.92560675619951E-04  -9.92560860173557E-04
     -1.40319674035157E-30
      6.03333333333334E-01
      9.05000000000001E+00   9.05000000000001E+00   0.00000000000000E+00   0.00000000000000E+00   6.05085890589496E-04
      4.26903187744297E-04   1.03198907833379E-03  -2.50325459869270E-28   0.00000000000000E+00   0.00000000000000E+00
      0.00000000000000E+00   0.00000000000000E+00  -1.87800941076599E-10  -1.03198889053285E-03  -1.03198907833379E-03
     -1.57254807108365E-31
      6.13333333333334E-01
      9.20000000000001E+00   9.20000000000001E+00   0.00000000000000E+00   0.00000000000000E+00   6.39069887216493E-04
      4.33120019742917E-04   1.07218990695941E-03  -1.88042879035458E-27   0.00000000000000E+00   0.00000000000000E+00
      0.00000000000000E+00   0.00000000000000E+00  -1.83839612090167E-10  -1.07218972311980E-03  -1.07218990695941E-03
     -1.68141678369713E-30
      6.23333333333334E-01
      9.35000000000001E+00   9.35000000000001E+00   0.00000000000000E+00   0.00000000000000E+00   6.74098303956246E-04
      4.39083347960501E-04   1.11318165191675E-03   1.54980660667106E-27   0.00000000000000E+00   0.00000000000000E+00
      0.00000000000000E+00   0.00000000000000E+00  -1.57566837954983E-10  -1.11318149434991E-03  -1.11318165191675E-03
     -3.02413090593010E-31
      6.33333333333334E-01
      9.50000000000001E+00   9.50000000000001E+00   0.00000000000000E+00   0.00000000000000E+00   7.10178423548139E-04
      4.44803218253220E-04   1.15498164180136E-03   2.61330877062131E-27   0.00000000000000E+00   0.00000000000000E+00
      0.00000000000000E+00   0.00000000000000E+00  -7.22069046743333E-11  -1.15498156959446E-03  -1.15498164180136E-03
     -2.66123519721849E-30
      6.43333333333334E-01
      9.65000000000001E+00   9.65000000000001E+00   0.00000000000000E+00   0.00000000000000E+00   7.47316758001978E-04
      4.50289408708509E-04   1.19760616671049E-03   5.84915303301376E-28   0.00000000000000E+00   0.00000000000000E+00
      0.00000000000000E+00   0.00000000000000E+00   1.50833224714350E-10  -1.19760631754372E-03  -1.19760616671049E-03
     -1.40319674035157E-30
      6.53333333333334E-01
      9.80000000000001E+00   9.80000000000001E+00   0.00000000000000E+00   0.00000000000000E+00   7.85519016682296E-04
      4.55551417810009E-04   1.24107043449231E-03   3.71835039669541E-27   0.00000000000000E+00   0.00000000000000E+00
      0.00000000000000E+00   0.00000000000000E+00   6.62638905718320E-10  -1.24107109713121E-03  -1.24107043449231E-03
      7.86274035541826E-31
      6.63333333333334E-01
      9.95000000000001E+00   9.95000000000001E+00   0.00000000000000E+00   0.00000000000000E+00   8.24790088548484E-04
      4.60598455413670E-04   1.28538854396215E-03  -1.69295686723416E-27   0.00000000000000E+00   0.00000000000000E+00
      0.00000000000000E+00   0.00000000000000E+00   1.72937207405874E-09  -1.28539027333423E-03  -1.28538854396215E-03
     -6.89501846552062E-31
      6.73333333333334E-01
      1.01000000000000E+01   1.01000000000000E+01   0.00000000000000E+00   0.00000000000000E+00   8.65134038110334E-04
      4.65439436222889E-04   1.33057347433322E-03  -2.58156749263266E-27   0.00000000000000E+00   0.00000000000000E+00
      0.00000000000000E+00   0.00000000000000E+00   3.78703908157687E-09  -1.33057726137231E-03  -1.33057347433323E-03
      5.32247039443697E-31
      6.83333333333334E-01