DF-ISE text

Info {
  version   = 1.0
  type      = xyplot
  datasets  = [
    "time"
    "Cathode OuterVoltage" "Cathode InnerVoltage" "Cathode QuasiFermiPotential" "Cathode DisplacementCurrent" "Cathode eCurrent"
    "Cathode hCurrent" "Cathode TotalCurrent" "Cathode Charge" "Anode OuterVoltage" "Anode InnerVoltage"
    "Anode QuasiFermiPotential" "Anode DisplacementCurrent" "Anode eCurrent" "Anode hCurrent" "Anode TotalCurrent"
    "Anode Charge" ]
  functions = [
    Time
    OuterVoltage InnerVoltage QuasiFermiPotential DisplacementCurrent eCurrent
    hCurrent TotalCurrent Charge OuterVoltage InnerVoltage
    QuasiFermiPotential DisplacementCurrent eCurrent hCurrent TotalCurrent
    Charge ]
}

Data {
      0.00000000000000E+00
      0.00000000000000E+00   0.00000000000000E+00   0.00000000000000E+00   0.00000000000000E+00   1.82677125264001E-06
     -1.82677125263999E-06   2.01847442676036E-20  -1.97415265539117E-29   0.00000000000000E+00   0.00000000000000E+00
      0.00000000000000E+00   0.00000000000000E+00  -1.56377755373916E-23  -1.82451281318802E-19  -1.82466919094339E-19
      3.87088755959053E-31
      0.00000000000000E+00
      0.00000000000000E+00   0.00000000000000E+00   0.00000000000000E+00   0.00000000000000E+00  -2.83952823590905E+07
      2.80591729353596E+07  -3.36109423730951E+05  -9.05787688944183E-28   0.00000000000000E+00   0.00000000000000E+00
      0.00000000000000E+00   0.00000000000000E+00   1.33444276593599E-11   7.58502409015754E-20   1.33444277352101E-11
      3.87088755959053E-31
      0.00000000000000E+00
      0.00000000000000E+00   0.00000000000000E+00   0.00000000000000E+00   0.00000000000000E+00   1.23923471401531E+31
     -1.23923471401531E+31  -2.94028790885017E+15  -1.89113191027381E-19   0.00000000000000E+00   0.00000000000000E+00
      0.00000000000000E+00   0.00000000000000E+00  -1.09314752257017E+28   1.09314752257017E+28   0.00000000000000E+00
      1.87035024093014E-21
}
