DF-ISE text

Info {
  version   = 1.0
  type      = xyplot
  datasets  = [
    "time"
    "Cathode OuterVoltage" "Cathode InnerVoltage" "Cathode QuasiFermiPotential" "Cathode DisplacementCurrent" "Cathode eCurrent"
    "Cathode hCurrent" "Cathode TotalCurrent" "Cathode Charge" "Anode OuterVoltage" "Anode InnerVoltage"
    "Anode QuasiFermiPotential" "Anode DisplacementCurrent" "Anode eCurrent" "Anode hCurrent" "Anode TotalCurrent"
    "Anode Charge" ]
  functions = [
    Time
    OuterVoltage InnerVoltage QuasiFermiPotential DisplacementCurrent eCurrent
    hCurrent TotalCurrent Charge OuterVoltage InnerVoltage
    QuasiFermiPotential DisplacementCurrent eCurrent hCurrent TotalCurrent
    Charge ]
}

Data {
      0.00000000000000E+00
      0.00000000000000E+00   0.00000000000000E+00   0.00000000000000E+00   0.00000000000000E+00   8.62857519626265E-21
      4.47926507819027E-21   1.31078402744529E-20  -1.97415265539117E-29   0.00000000000000E+00   0.00000000000000E+00
      0.00000000000000E+00   0.00000000000000E+00  -1.64806948719939E-22  -1.82302112145624E-19  -1.82466919094344E-19
      3.87088755959053E-31
      0.00000000000000E+00
      0.00000000000000E+00   0.00000000000000E+00   0.00000000000000E+00   0.00000000000000E+00  -4.67455749905769E-22
      3.43371608163823E-21   2.96626033173246E-21  -6.52244553791003E-29   0.00000000000000E+00   0.00000000000000E+00
      0.00000000000000E+00   0.00000000000000E+00  -1.37485015616403E-22  -1.82330560187930E-19  -1.82468045203546E-19
     -7.74177511918105E-31
      0.00000000000000E+00
      0.00000000000000E+00   0.00000000000000E+00   0.00000000000000E+00   0.00000000000000E+00  -3.68494645305448E-22
      4.42835591287000E-22   7.43409459815522E-23  -1.86770324750243E-28   0.00000000000000E+00   0.00000000000000E+00
      0.00000000000000E+00   0.00000000000000E+00  -1.29045519004513E-22   3.61556719626314E-21   3.48652167725863E-21
      0.00000000000000E+00
      5.00000000000000E-03
      7.50000000000000E-02   7.50000000000000E-02   0.00000000000000E+00   0.00000000000000E+00   9.75575802337161E-09
      7.73717166257866E-08   8.71274746491582E-08   1.05868774754801E-28   0.00000000000000E+00   0.00000000000000E+00
      0.00000000000000E+00   0.00000000000000E+00  -1.14609683133593E-12  -8.71263285523318E-08  -8.71274746491631E-08
      5.80633133938579E-31
      1.23333333333333E-02
      1.85000000000000E-01   1.85000000000000E-01   0.00000000000000E+00   0.00000000000000E+00   2.67680242186935E-08
      1.73951864225026E-07   2.00719888443719E-07   5.30311595663902E-29   0.00000000000000E+00   0.00000000000000E+00
      0.00000000000000E+00   0.00000000000000E+00  -2.63353894966718E-12  -2.00717254904754E-07  -2.00719888443704E-07
     -1.93544377979526E-31
      2.23333333333333E-02
      3.35000000000000E-01   3.35000000000000E-01   0.00000000000000E+00   0.00000000000000E+00   5.26937196861265E-08
      2.92291329009594E-07   3.44985048695721E-07  -3.96765974858029E-29   0.00000000000000E+00   0.00000000000000E+00
      0.00000000000000E+00   0.00000000000000E+00  -4.52095743316211E-12  -3.44980527738304E-07  -3.44985048695737E-07
     -1.93544377979526E-31
      3.23333333333333E-02
      4.85000000000000E-01   4.85000000000000E-01   0.00000000000000E+00   0.00000000000000E+00   8.12756837334621E-08
      4.02844799490472E-07   4.84120483223934E-07   4.29668519114548E-29   0.00000000000000E+00   0.00000000000000E+00
      0.00000000000000E+00   0.00000000000000E+00  -6.34124564384706E-12  -4.84114141978290E-07  -4.84120483223934E-07
     -1.93544377979526E-31
      4.23333333333333E-02
      6.35000000000000E-01   6.35000000000000E-01   0.00000000000000E+00   0.00000000000000E+00   1.13472530889715E-07
      5.12113744681947E-07   6.25586275571662E-07  -6.46438222451618E-29   0.00000000000000E+00   0.00000000000000E+00
      0.00000000000000E+00   0.00000000000000E+00  -8.19203562317108E-12  -6.25578083536045E-07  -6.25586275571668E-07
     -1.93544377979526E-31
      5.23333333333333E-02
      7.85000000000000E-01   7.85000000000000E-01   0.00000000000000E+00   0.00000000000000E+00   1.39834724474188E-07
      5.93028384247102E-07   7.32863108721290E-07   1.79996271520959E-29   0.00000000000000E+00   0.00000000000000E+00
      0.00000000000000E+00   0.00000000000000E+00  -9.59557222100503E-12  -7.32853513149072E-07  -7.32863108721293E-07
      1.93544377979526E-31
      6.23333333333333E-02
      9.35000000000000E-01   9.35000000000000E-01   0.00000000000000E+00   0.00000000000000E+00   1.69362261674043E-07
      6.76646694922190E-07   8.46008956596234E-07   1.35093975829709E-28   0.00000000000000E+00   0.00000000000000E+00
      0.00000000000000E+00   0.00000000000000E+00  -1.10758306378609E-11  -8.45997880765602E-07  -8.46008956596240E-07
     -5.80633133938579E-31
      7.23333333333333E-02
      1.08500000000000E+00   1.08500000000000E+00   0.00000000000000E+00   0.00000000000000E+00   2.01198860534048E-07
      7.60105565750035E-07   9.61304426284083E-07  -7.04501535845476E-29   0.00000000000000E+00   0.00000000000000E+00
      0.00000000000000E+00   0.00000000000000E+00  -1.25840012534025E-11  -9.61291842282830E-07  -9.61304426284084E-07
      3.87088755959053E-31
      8.23333333333333E-02
      1.23500000000000E+00   1.23500000000000E+00   0.00000000000000E+00   0.00000000000000E+00   2.30478673841975E-07
      8.31787738502052E-07   1.06226641234403E-06  -7.76112955697900E-29   0.00000000000000E+00   0.00000000000000E+00
      0.00000000000000E+00   0.00000000000000E+00  -1.39043451887752E-11  -1.06225250799883E-06  -1.06226641234402E-06
      1.93544377979526E-31
      9.23333333333333E-02
      1.38500000000000E+00   1.38500000000000E+00   0.00000000000000E+00   0.00000000000000E+00   2.65876818957541E-07
      9.13003530256632E-07   1.17888034921417E-06   8.41918044210939E-29   0.00000000000000E+00   0.00000000000000E+00
      0.00000000000000E+00   0.00000000000000E+00  -1.54293792574939E-11  -1.17886491983490E-06  -1.17888034921416E-06
     -3.87088755959053E-31
      1.02333333333333E-01
      1.53500000000000E+00   1.53500000000000E+00   0.00000000000000E+00   0.00000000000000E+00   3.17003470878266E-07
      1.02154233606014E-06   1.33854580693841E-06  -4.35474850453934E-29   0.00000000000000E+00   0.00000000000000E+00
      0.00000000000000E+00   0.00000000000000E+00  -1.75176626600108E-11  -1.33852828927578E-06  -1.33854580693844E-06
      1.93544377979526E-31
      1.12333333333333E-01
      1.68500000000000E+00   1.68500000000000E+00   0.00000000000000E+00   0.00000000000000E+00   3.66740867976449E-07
      1.11890838648358E-06   1.48564925446003E-06   2.86445679409699E-29   0.00000000000000E+00   0.00000000000000E+00
      0.00000000000000E+00   0.00000000000000E+00  -1.94414239112296E-11  -1.48562981303612E-06  -1.48564925446003E-06
     -1.93544377979526E-31
      1.22333333333333E-01
      1.83500000000000E+00   1.83500000000000E+00   0.00000000000000E+00   0.00000000000000E+00   4.03585603721402E-07
      1.18663213136956E-06   1.59021773509096E-06   6.48373666231413E-29   0.00000000000000E+00   0.00000000000000E+00
      0.00000000000000E+00   0.00000000000000E+00  -2.08082708507578E-11  -1.59019692682010E-06  -1.59021773509095E-06
     -1.93544377979526E-31
      1.32333333333333E-01
      1.98500000000000E+00   1.98500000000000E+00   0.00000000000000E+00   0.00000000000000E+00   4.25293072629572E-07
      1.22498097783503E-06   1.65027405046460E-06   2.51607691373384E-30   0.00000000000000E+00   0.00000000000000E+00
      0.00000000000000E+00   0.00000000000000E+00  -2.15920792113832E-11  -1.65025245838536E-06  -1.65027405046457E-06
      1.93544377979526E-31
      1.42333333333333E-01
      2.13500000000000E+00   2.13500000000000E+00   0.00000000000000E+00   0.00000000000000E+00   4.39564565542693E-07
      1.24961376988042E-06   1.68917833542311E-06  -4.68377394710454E-29   0.00000000000000E+00   0.00000000000000E+00
      0.00000000000000E+00   0.00000000000000E+00  -2.20980846945935E-11  -1.68915623733840E-06  -1.68917833542310E-06
      3.87088755959053E-31
      1.52333333333333E-01
      2.28500000000000E+00   2.28500000000000E+00   0.00000000000000E+00   0.00000000000000E+00   4.52998520255552E-07
      1.27240306792184E-06   1.72540158817740E-06   4.25797631554958E-29   0.00000000000000E+00   0.00000000000000E+00
      0.00000000000000E+00   0.00000000000000E+00  -2.25672110500385E-11  -1.72537902096636E-06  -1.72540158817741E-06
     -5.80633133938579E-31
      1.62333333333333E-01
      2.43500000000000E+00   2.43500000000000E+00   0.00000000000000E+00   0.00000000000000E+00   4.68718535336557E-07
      1.29860209256035E-06   1.76732062789691E-06   8.20628162633191E-29   0.00000000000000E+00   0.00000000000000E+00
      0.00000000000000E+00   0.00000000000000E+00  -2.31094548978345E-11  -1.76729751844200E-06  -1.76732062789690E-06
     -5.80633133938579E-31
      1.72333333333333E-01
      2.58500000000000E+00   2.58500000000000E+00   0.00000000000000E+00   0.00000000000000E+00   4.90344357577950E-07
      1.33385681485291E-06   1.82420117243086E-06   7.64500293019129E-29   0.00000000000000E+00   0.00000000000000E+00
      0.00000000000000E+00   0.00000000000000E+00  -2.38474269899209E-11  -1.82417732500387E-06  -1.82420117243086E-06
      0.00000000000000E+00
      1.82333333333333E-01
      2.73500000000000E+00   2.73500000000000E+00   0.00000000000000E+00   0.00000000000000E+00   5.25535847801478E-07
      1.38939861703824E-06   1.91493446483972E-06  -2.59349466492565E-29   0.00000000000000E+00   0.00000000000000E+00
      0.00000000000000E+00   0.00000000000000E+00  -2.50283861893546E-11  -1.91490943645353E-06  -1.91493446483972E-06
     -5.80633133938579E-31
      1.92333333333333E-01
      2.88500000000000E+00   2.88500000000000E+00   0.00000000000000E+00   0.00000000000000E+00   5.82790426811759E-07
      1.47536913080879E-06   2.05815955762055E-06  -2.48510981325712E-28   0.00000000000000E+00   0.00000000000000E+00
      0.00000000000000E+00   0.00000000000000E+00  -2.68959738325835E-11  -2.05813266164672E-06  -2.05815955762055E-06
      3.87088755959053E-31
      2.02333333333333E-01
      3.03500000000000E+00   3.03500000000000E+00   0.00000000000000E+00   0.00000000000000E+00   6.59316386170856E-07
      1.58285675324208E-06   2.24217313941293E-06   6.27083784653665E-29   0.00000000000000E+00   0.00000000000000E+00
      0.00000000000000E+00   0.00000000000000E+00  -2.92969005251628E-11  -2.24214384251238E-06  -2.24217313941291E-06
      3.87088755959053E-31
      2.12333333333333E-01
      3.18500000000000E+00   3.18500000000000E+00   0.00000000000000E+00   0.00000000000000E+00   7.40381859276788E-07
      1.68883842074172E-06   2.42922028001850E-06   9.56109227218860E-29   0.00000000000000E+00   0.00000000000000E+00
      0.00000000000000E+00   0.00000000000000E+00  -3.17367758229319E-11  -2.42918854324270E-06  -2.42922028001853E-06
      0.00000000000000E+00
      2.22333333333333E-01
      3.33500000000000E+00   3.33500000000000E+00   0.00000000000000E+00   0.00000000000000E+00   8.14588129997326E-07
      1.77981795365845E-06   2.59440608365578E-06   3.94830531078234E-29   0.00000000000000E+00   0.00000000000000E+00
      0.00000000000000E+00   0.00000000000000E+00  -3.38892106723881E-11  -2.59437219444511E-06  -2.59440608365578E-06
      3.87088755959053E-31
      2.32333333333333E-01
      3.48500000000000E+00   3.48500000000000E+00   0.00000000000000E+00   0.00000000000000E+00   8.76092462456150E-07
      1.85147567812950E-06   2.72756814058565E-06   2.42317561230367E-28   0.00000000000000E+00   0.00000000000000E+00
      0.00000000000000E+00   0.00000000000000E+00  -3.56200927416577E-11  -2.72753252049292E-06  -2.72756814058566E-06
      0.00000000000000E+00
      2.42333333333333E-01
      3.63500000000000E+00   3.63500000000000E+00   0.00000000000000E+00   0.00000000000000E+00   9.26663318200060E-07
      1.90819674143241E-06   2.83486005963247E-06  -2.15414892691213E-28   0.00000000000000E+00   0.00000000000000E+00
      0.00000000000000E+00   0.00000000000000E+00  -3.70081967208568E-11  -2.83482305143574E-06  -2.83486005963246E-06
      0.00000000000000E+00
      2.52333333333333E-01
      3.78500000000000E+00   3.78500000000000E+00   0.00000000000000E+00   0.00000000000000E+00   9.72762079335708E-07
      1.95837738379578E-06   2.93113946313149E-06   6.79340766708137E-29   0.00000000000000E+00   0.00000000000000E+00
      0.00000000000000E+00   0.00000000000000E+00  -3.82472890361611E-11  -2.93110121584244E-06  -2.93113946313147E-06
      0.00000000000000E+00
      2.62333333333333E-01
      3.93500000000000E+00   3.93500000000000E+00   0.00000000000000E+00   0.00000000000000E+00   1.01917114413827E-06
      2.00755139608819E-06   3.02672254022646E-06   2.57414022712770E-29   0.00000000000000E+00   0.00000000000000E+00
      0.00000000000000E+00   0.00000000000000E+00  -3.94743206363192E-11  -3.02668306590581E-06  -3.02672254022645E-06
      1.93544377979526E-31
      2.72333333333333E-01
      4.08500000000000E+00   4.08500000000000E+00   0.00000000000000E+00   0.00000000000000E+00   1.06911081103161E-06
      2.05905110576221E-06   3.12816191679382E-06  -1.52900058603826E-28   0.00000000000000E+00   0.00000000000000E+00
      0.00000000000000E+00   0.00000000000000E+00  -4.07749052365289E-11  -3.12812114188858E-06  -3.12816191679382E-06
     -1.93544377979526E-31
      2.82333333333333E-01
      4.23500000000000E+00   4.23500000000000E+00   0.00000000000000E+00   0.00000000000000E+00   1.12560987711008E-06
      2.11563779246014E-06   3.24124766957023E-06   9.58044670998655E-29   0.00000000000000E+00   0.00000000000000E+00
      0.00000000000000E+00   0.00000000000000E+00  -4.22229327553063E-11  -3.24120544663745E-06  -3.24124766957021E-06
      3.87088755959053E-31
      2.92333333333333E-01
      4.38500000000000E+00   4.38500000000000E+00   0.00000000000000E+00   0.00000000000000E+00   1.19240405873955E-06
      2.18036509555358E-06   3.37276915429313E-06   2.28382366015841E-29   0.00000000000000E+00   0.00000000000000E+00
      0.00000000000000E+00   0.00000000000000E+00  -4.39086492460498E-11  -3.37272524564388E-06  -3.37276915429313E-06
     -1.93544377979526E-31
      3.02333333333333E-01
      4.53500000000000E+00   4.53500000000000E+00   0.00000000000000E+00   0.00000000000000E+00   1.27616753597526E-06
      2.25841064302717E-06   3.53457817900242E-06  -2.04189318768400E-28   0.00000000000000E+00   0.00000000000000E+00
      0.00000000000000E+00   0.00000000000000E+00  -4.59890110403098E-11  -3.53453218999139E-06  -3.53457817900243E-06
      1.93544377979526E-31
      3.12333333333333E-01
      4.68500000000000E+00   4.68500000000000E+00   0.00000000000000E+00   0.00000000000000E+00   1.38667201500577E-06
      2.35650322212959E-06   3.74317523713536E-06   2.62059087784279E-28   0.00000000000000E+00   0.00000000000000E+00
      0.00000000000000E+00   0.00000000000000E+00  -4.86793120205464E-11  -3.74312655782334E-06  -3.74317523713536E-06
     -1.93544377979526E-31
      3.22333333333333E-01
      4.83500000000000E+00   4.83500000000000E+00   0.00000000000000E+00   0.00000000000000E+00   1.52926380767692E-06
      2.47598318468165E-06   4.00524699235858E-06   2.14447170801315E-28   0.00000000000000E+00   0.00000000000000E+00
      0.00000000000000E+00   0.00000000000000E+00  -5.20660861591502E-11  -4.00519492627240E-06  -4.00524699235856E-06
      1.93544377979526E-31
      3.32333333333333E-01
      4.98500000000000E+00   4.98500000000000E+00   0.00000000000000E+00   0.00000000000000E+00   1.69684967115636E-06
      2.60796656918630E-06   4.30481624034266E-06   3.58057099262124E-29   0.00000000000000E+00   0.00000000000000E+00
      0.00000000000000E+00   0.00000000000000E+00  -5.59389139402833E-11  -4.30476030142874E-06  -4.30481624034268E-06
      0.00000000000000E+00
      3.42333333333333E-01
      5.13500000000000E+00   5.13500000000000E+00   0.00000000000000E+00   0.00000000000000E+00   1.88153670209192E-06
      2.74487435703518E-06   4.62641105912710E-06   1.84641336592468E-28   0.00000000000000E+00   0.00000000000000E+00
      0.00000000000000E+00   0.00000000000000E+00  -6.00933112465943E-11  -4.62635096581585E-06  -4.62641105912709E-06
      0.00000000000000E+00
      3.52333333333333E-01
      5.28500000000000E+00   5.28500000000000E+00   0.00000000000000E+00   0.00000000000000E+00   2.08682863742613E-06
      2.88843203282178E-06   4.97526067024792E-06   1.40513218413136E-28   0.00000000000000E+00   0.00000000000000E+00
      0.00000000000000E+00   0.00000000000000E+00  -6.45958781526588E-11  -4.97519607436976E-06  -4.97526067024791E-06
     -1.93544377979526E-31
      3.62333333333334E-01
      5.43500000000000E+00   5.43500000000000E+00   0.00000000000000E+00   0.00000000000000E+00   2.31661851479106E-06
      3.04034463294690E-06   5.35696314773796E-06   3.74121282634424E-28   0.00000000000000E+00   0.00000000000000E+00
      0.00000000000000E+00   0.00000000000000E+00  -6.95176401123068E-11  -5.35689363009788E-06  -5.35696314773800E-06
      3.87088755959053E-31
      3.72333333333334E-01
      5.58500000000000E+00   5.58500000000000E+00   0.00000000000000E+00   0.00000000000000E+00   2.56340119313450E-06
      3.19568106273530E-06   5.75908225586980E-06  -1.97608809917096E-28   0.00000000000000E+00   0.00000000000000E+00
      0.00000000000000E+00   0.00000000000000E+00  -7.46909894087545E-11  -5.75900756488039E-06  -5.75908225586980E-06
     -3.87088755959053E-31
      3.82333333333334E-01
      5.73500000000000E+00   5.73500000000000E+00   0.00000000000000E+00   0.00000000000000E+00   2.81533009196534E-06
      3.34869557138105E-06   6.16402566334639E-06  -1.24449035040835E-28   0.00000000000000E+00   0.00000000000000E+00
      0.00000000000000E+00   0.00000000000000E+00  -7.98790517556415E-11  -6.16394578429463E-06  -6.16402566334639E-06
     -5.80633133938579E-31
      3.92333333333334E-01
      5.88500000000000E+00   5.88500000000000E+00   0.00000000000000E+00   0.00000000000000E+00   3.07096140483029E-06
      3.50049443667401E-06   6.57145584150431E-06   4.08185093158821E-28   0.00000000000000E+00   0.00000000000000E+00
      0.00000000000000E+00   0.00000000000000E+00  -8.50770769784286E-11  -6.57137076442733E-06  -6.57145584150431E-06
      0.00000000000000E+00
      4.02333333333334E-01
      6.03500000000000E+00   6.03500000000000E+00   0.00000000000000E+00   0.00000000000000E+00   3.33746770790935E-06
      3.65648642675874E-06   6.99395413466809E-06  -2.41930472474408E-29   0.00000000000000E+00   0.00000000000000E+00
      0.00000000000000E+00   0.00000000000000E+00  -9.04575868935827E-11  -6.99386367708122E-06  -6.99395413466812E-06
     -1.93544377979526E-31
      4.12333333333334E-01
      6.18500000000000E+00   6.18500000000000E+00   0.00000000000000E+00   0.00000000000000E+00   3.62343680626075E-06
      3.82228715223145E-06   7.44572395849221E-06   6.25148340873870E-29   0.00000000000000E+00   0.00000000000000E+00
      0.00000000000000E+00   0.00000000000000E+00  -9.62105164629626E-11  -7.44562774797574E-06  -7.44572395849220E-06
      3.87088755959053E-31
      4.22333333333334E-01
      6.33500000000000E+00   6.33500000000000E+00   0.00000000000000E+00   0.00000000000000E+00   3.93653700851164E-06
      4.00291777884250E-06   7.93945478735415E-06   5.07086270306359E-29   0.00000000000000E+00   0.00000000000000E+00
      0.00000000000000E+00   0.00000000000000E+00  -1.02498615346703E-10  -7.93935228873879E-06  -7.93945478735414E-06
      5.80633133938579E-31
      4.32333333333334E-01
      6.48500000000000E+00   6.48500000000000E+00   0.00000000000000E+00   0.00000000000000E+00   4.28361257451199E-06
      4.20327383535187E-06   8.48688640986386E-06   1.03662368845834E-27   0.00000000000000E+00   0.00000000000000E+00
      0.00000000000000E+00   0.00000000000000E+00  -1.09470186187382E-10  -8.48677693967767E-06  -8.48688640986386E-06
      5.80633133938579E-31
      4.42333333333334E-01
      6.63500000000000E+00   6.63500000000000E+00   0.00000000000000E+00   0.00000000000000E+00   4.67200650829197E-06
      4.42904236828936E-06   9.10104887658133E-06   1.33061759860924E-28   0.00000000000000E+00   0.00000000000000E+00
      0.00000000000000E+00   0.00000000000000E+00  -1.17290592085567E-10  -9.10093158598924E-06  -9.10104887658133E-06
     -3.87088755959053E-31
      4.52333333333334E-01
      6.78500000000000E+00   6.78500000000000E+00   0.00000000000000E+00   0.00000000000000E+00   5.11192752289100E-06
      4.68786485603417E-06   9.79979237892517E-06   5.47633817493070E-28   0.00000000000000E+00   0.00000000000000E+00
      0.00000000000000E+00   0.00000000000000E+00  -1.26187723760135E-10  -9.79966619120141E-06  -9.79979237892517E-06
     -1.93544377979526E-31
      4.62333333333334E-01
      6.93500000000000E+00   6.93500000000000E+00   0.00000000000000E+00   0.00000000000000E+00   5.61982911036867E-06
      4.99060754470443E-06   1.06104366550731E-05   1.51932336713928E-28   0.00000000000000E+00   0.00000000000000E+00
      0.00000000000000E+00   0.00000000000000E+00  -1.36511958543562E-10  -1.06103001431146E-05  -1.06104366550731E-05
      3.87088755959053E-31
      4.72333333333334E-01
      7.08500000000000E+00   7.08500000000000E+00   0.00000000000000E+00   0.00000000000000E+00   6.21978167452504E-06
      5.35151870538321E-06   1.15713003799083E-05  -5.42021030531663E-28   0.00000000000000E+00   0.00000000000000E+00
      0.00000000000000E+00   0.00000000000000E+00  -1.48757697302826E-10  -1.15711516222110E-05  -1.15713003799083E-05
      1.93544377979526E-31
      4.82333333333334E-01
      7.23500000000000E+00   7.23500000000000E+00   0.00000000000000E+00   0.00000000000000E+00   6.93329439863565E-06
      5.78414421598223E-06   1.27174386146179E-05   1.73754465331120E-27   0.00000000000000E+00   0.00000000000000E+00
      0.00000000000000E+00   0.00000000000000E+00  -1.63381550960639E-10  -1.27172752330669E-05  -1.27174386146179E-05
      1.93544377979526E-31
      4.92333333333334E-01
      7.38500000000000E+00   7.38500000000000E+00   0.00000000000000E+00   0.00000000000000E+00   7.75845723926934E-06
      6.29425964817678E-06   1.40527168874461E-05   8.64078875489595E-28   0.00000000000000E+00   0.00000000000000E+00
      0.00000000000000E+00   0.00000000000000E+00  -1.80436288850816E-10  -1.40525364511573E-05  -1.40527168874461E-05
     -1.93544377979526E-31
      5.02333333333334E-01
      7.53500000000000E+00   7.53500000000000E+00   0.00000000000000E+00   0.00000000000000E+00   8.67400768228140E-06
      6.88182355031496E-06   1.55558312325964E-05  -8.24595822381772E-28   0.00000000000000E+00   0.00000000000000E+00
      0.00000000000000E+00   0.00000000000000E+00  -1.99641367045182E-10  -1.55556315912293E-05  -1.55558312325964E-05
      3.87088755959053E-31
      5.12333333333334E-01
      7.68500000000000E+00   7.68500000000000E+00   0.00000000000000E+00   0.00000000000000E+00   9.68253249394555E-06
      7.55513749953356E-06   1.72376699934791E-05  -5.57407808581036E-29   0.00000000000000E+00   0.00000000000000E+00
      0.00000000000000E+00   0.00000000000000E+00  -2.21139457032611E-10  -1.72374488540220E-05  -1.72376699934791E-05
      1.93544377979526E-31
      5.22333333333334E-01
      7.83500000000000E+00   7.83500000000000E+00   0.00000000000000E+00   0.00000000000000E+00   1.08359159160372E-05
      8.34092110136291E-06   1.91768370174001E-05  -4.68377394710454E-28   0.00000000000000E+00   0.00000000000000E+00
      0.00000000000000E+00   0.00000000000000E+00  -2.45973439290368E-10  -1.91765910439608E-05  -1.91768370174001E-05
      1.93544377979526E-31
      5.32333333333334E-01
      7.98500000000000E+00   7.98500000000000E+00   0.00000000000000E+00   0.00000000000000E+00   1.22306144778501E-05
      9.28819817379980E-06   2.15188126516499E-05   8.87400973036128E-29   0.00000000000000E+00   0.00000000000000E+00
      0.00000000000000E+00   0.00000000000000E+00  -2.76071912361862E-10  -2.15185365797375E-05  -2.15188126516499E-05
      1.93544377979526E-31
      5.42333333333334E-01
      8.13500000000001E+00   8.13500000000001E+00   0.00000000000000E+00   0.00000000000000E+00   1.40146134417706E-05
      1.04741078209451E-05   2.44887212627158E-05   1.11152536273642E-27   0.00000000000000E+00   0.00000000000000E+00
      0.00000000000000E+00   0.00000000000000E+00  -3.14418139429379E-10  -2.44884068445763E-05  -2.44887212627158E-05
     -7.74177511918105E-31
      5.52333333333334E-01
      8.28500000000001E+00   8.28500000000001E+00   0.00000000000000E+00   0.00000000000000E+00   1.64142709098632E-05
      1.20061355907366E-05   2.84204065005998E-05   3.86024261880165E-28   0.00000000000000E+00   0.00000000000000E+00
      0.00000000000000E+00   0.00000000000000E+00  -3.65452279205925E-10  -2.84200410483207E-05  -2.84204065005999E-05
      0.00000000000000E+00
      5.62333333333334E-01
      8.43500000000001E+00   8.43500000000001E+00   0.00000000000000E+00   0.00000000000000E+00   1.97728912711419E-05
      1.40157225614813E-05   3.37886138326232E-05  -1.02360782903922E-27   0.00000000000000E+00   0.00000000000000E+00
      0.00000000000000E+00   0.00000000000000E+00  -4.35533845827032E-10  -3.37881782987773E-05  -3.37886138326232E-05
     -3.87088755959053E-31
      5.72333333333334E-01
      8.58500000000001E+00   8.58500000000001E+00   0.00000000000000E+00   0.00000000000000E+00   2.45869775191927E-05
      1.66412271558378E-05   4.12282046750305E-05   8.28708640413837E-28   0.00000000000000E+00   0.00000000000000E+00
      0.00000000000000E+00   0.00000000000000E+00  -5.33255946631516E-10  -4.12276714190839E-05  -4.12282046750305E-05
      0.00000000000000E+00
      5.82333333333334E-01
      8.73500000000000E+00   8.73500000000000E+00   0.00000000000000E+00   0.00000000000000E+00   3.15093009581161E-05
      1.99959618792444E-05   5.15052628373605E-05  -3.96935326188761E-28   0.00000000000000E+00   0.00000000000000E+00
      0.00000000000000E+00   0.00000000000000E+00  -6.69116563445618E-10  -5.15045937207971E-05  -5.15052628373605E-05
      0.00000000000000E+00
      5.92333333333334E-01
      8.88500000000001E+00   8.88500000000001E+00   0.00000000000000E+00   0.00000000000000E+00   4.13099986630966E-05
      2.41315037466854E-05   6.54415024097821E-05   1.08722344677637E-27   0.00000000000000E+00   0.00000000000000E+00
      0.00000000000000E+00   0.00000000000000E+00  -8.54472183490039E-10  -6.54406479375986E-05  -6.54415024097821E-05
      0.00000000000000E+00
      6.02333333333334E-01
      9.03500000000001E+00   9.03500000000001E+00   0.00000000000000E+00   0.00000000000000E+00   5.48554472307627E-05
      2.90209694100861E-05   8.38764166408488E-05   7.39738709161373E-28   0.00000000000000E+00   0.00000000000000E+00
      0.00000000000000E+00   0.00000000000000E+00  -1.10080902108115E-09  -8.38753158318277E-05  -8.38764166408488E-05
      3.87088755959053E-31
      6.12333333333334E-01
      9.18500000000001E+00   9.18500000000001E+00   0.00000000000000E+00   0.00000000000000E+00   7.29280637582966E-05
      3.45567884083380E-05   1.07484852166635E-04  -4.13689011407614E-28   0.00000000000000E+00   0.00000000000000E+00
      0.00000000000000E+00   0.00000000000000E+00  -1.41734747275080E-09  -1.07483434819162E-04  -1.07484852166635E-04
     -3.87088755959053E-31
      6.22333333333334E-01
      9.33500000000001E+00   9.33500000000001E+00   0.00000000000000E+00   0.00000000000000E+00   9.60748777588258E-05
      4.05849049755664E-05   1.36659782734392E-04   1.23512764112359E-27   0.00000000000000E+00   0.00000000000000E+00
      0.00000000000000E+00   0.00000000000000E+00  -1.80913856378939E-09  -1.36657973595828E-04  -1.36659782734392E-04
      1.93544377979526E-31
      6.32333333333334E-01
      9.48500000000001E+00   9.48500000000001E+00   0.00000000000000E+00   0.00000000000000E+00   1.24705845457625E-04
      4.69467728385527E-05   1.71652618296177E-04  -1.14046024724436E-27   0.00000000000000E+00   0.00000000000000E+00
      0.00000000000000E+00   0.00000000000000E+00  -2.27846813927349E-09  -1.71650339828038E-04  -1.71652618296177E-04
      1.93544377979526E-31
      6.42333333333334E-01
      9.63500000000001E+00   9.63500000000001E+00   0.00000000000000E+00   0.00000000000000E+00   1.59086438457868E-04
      5.34997752136324E-05   2.12586213671500E-04  -4.27733075334753E-29   0.00000000000000E+00   0.00000000000000E+00
      0.00000000000000E+00   0.00000000000000E+00  -2.82494882398062E-09  -2.12583388722676E-04  -2.12586213671500E-04
      0.00000000000000E+00
      6.52333333333334E-01
      9.78500000000001E+00   9.78500000000001E+00   0.00000000000000E+00   0.00000000000000E+00   1.99311828269041E-04
      6.01246006591252E-05   2.59436428928166E-04  -6.16632388242771E-28   0.00000000000000E+00   0.00000000000000E+00
      0.00000000000000E+00   0.00000000000000E+00  -3.44532863810394E-09  -2.59432983599529E-04  -2.59436428928167E-04
     -3.87088755959053E-31
      6.62333333333334E-01
      9.93500000000001E+00   9.93500000000001E+00   0.00000000000000E+00   0.00000000000000E+00   2.45371507186298E-04
      6.67273112037008E-05   3.12098818389998E-04  -3.78137328477499E-28   0.00000000000000E+00   0.00000000000000E+00
      0.00000000000000E+00   0.00000000000000E+00  -4.13449926964911E-09  -3.12094683890730E-04  -3.12098818389999E-04
     -5.80633133938579E-31
      6.72333333333334E-01
      1.00850000000000E+01   1.00850000000000E+01   0.00000000000000E+00   0.00000000000000E+00   2.97190263151426E-04
      7.32358527883840E-05   3.70426115939810E-04  -1.32040813267082E-27   0.00000000000000E+00   0.00000000000000E+00
      0.00000000000000E+00   0.00000000000000E+00  -4.88626513482867E-09  -3.70421229674676E-04  -3.70426115939810E-04
      0.00000000000000E+00
      6.82333333333334E-01