DF-ISE text

Info {
  version   = 1.0
  type      = xyplot
  datasets  = [
    "time"
    "ntype OuterVoltage" "ntype InnerVoltage" "ntype QuasiFermiPotential" "ntype DisplacementCurrent" "ntype eCurrent"
    "ntype hCurrent" "ntype TotalCurrent" "ntype Charge" "ptype OuterVoltage" "ptype InnerVoltage"
    "ptype QuasiFermiPotential" "ptype DisplacementCurrent" "ptype eCurrent" "ptype hCurrent" "ptype TotalCurrent"
    "ptype Charge" ]
  functions = [
    Time
    OuterVoltage InnerVoltage QuasiFermiPotential DisplacementCurrent eCurrent
    hCurrent TotalCurrent Charge OuterVoltage InnerVoltage
    QuasiFermiPotential DisplacementCurrent eCurrent hCurrent TotalCurrent
    Charge ]
}

Data {
      0.00000000000000E+00
      0.00000000000000E+00   0.00000000000000E+00   0.00000000000000E+00   0.00000000000000E+00  -2.48062198096293E-23
      2.48062342414494E-23   1.44318201252394E-29  -1.01166648113261E-27   0.00000000000000E+00   0.00000000000000E+00
      0.00000000000000E+00   0.00000000000000E+00  -1.51328098395374E-24  -1.22097836486376E-18  -1.22097987814474E-18
      4.74183726049839E-30
      0.00000000000000E+00
      0.00000000000000E+00   0.00000000000000E+00   0.00000000000000E+00   0.00000000000000E+00   1.30938442855245E-17
      3.63110716423034E-18   1.67249514497548E-17   1.05608794000982E-28   0.00000000000000E+00   0.00000000000000E+00
      0.00000000000000E+00   0.00000000000000E+00   1.58571816598951E-22  -1.22098113120230E-18  -1.22082255938570E-18
      2.33220975465329E-29
      0.00000000000000E+00
      0.00000000000000E+00   0.00000000000000E+00   0.00000000000000E+00   0.00000000000000E+00   3.20075135533621E-21
      2.57926186416129E-19   2.61126937771465E-19  -2.18758759287581E-27   0.00000000000000E+00   0.00000000000000E+00
      0.00000000000000E+00   0.00000000000000E+00   1.10997515164013E-24  -6.92981711003542E-20  -6.92970611252026E-20
     -2.95155176418778E-29
      5.00000000000000E-03
      7.50000000000000E-02   7.50000000000000E-02   0.00000000000000E+00   0.00000000000000E+00   1.20244778809384E-09
      1.29527860589067E-10   1.33197564868291E-09   9.03755378471307E-29   0.00000000000000E+00   0.00000000000000E+00
      0.00000000000000E+00   0.00000000000000E+00  -9.47464673506071E-15  -1.33196617386433E-09  -1.33197564851106E-09
     -2.32253253575432E-30
      1.30000000000000E-02
      1.95000000000000E-01   1.95000000000000E-01   0.00000000000000E+00   0.00000000000000E+00   2.46942548695835E-09
      2.51975334303026E-10   2.72140082126138E-09   6.79176896614672E-28   0.00000000000000E+00   0.00000000000000E+00
      0.00000000000000E+00   0.00000000000000E+00  -1.02162092727105E-14  -2.72139060489766E-09  -2.72140082110693E-09
     -1.74189940181574E-30
      2.30000000000000E-02
      3.45000000000000E-01   3.45000000000000E-01   0.00000000000000E+00   0.00000000000000E+00   3.88877064582730E-09
      3.88913937810351E-10   4.27768458363765E-09   5.74027486999119E-28   0.00000000000000E+00   0.00000000000000E+00
      0.00000000000000E+00   0.00000000000000E+00  -1.02396825088481E-14  -4.27767434391361E-09  -4.27768458359612E-09
      1.01610798439251E-29
      3.30000000000000E-02
      4.95000000000000E-01   4.95000000000000E-01   0.00000000000000E+00   0.00000000000000E+00   5.27887164671269E-09
      5.62283430107041E-10   5.84115507681973E-09  -1.09171579323712E-27   0.00000000000000E+00   0.00000000000000E+00
      0.00000000000000E+00   0.00000000000000E+00  -1.02284690025128E-14  -5.84114484843968E-09  -5.84115507690869E-09
      2.14834259557274E-29
      4.30000000000000E-02
      6.45000000000000E-01   6.45000000000000E-01   0.00000000000000E+00   0.00000000000000E+00   6.63179445291356E-09
      9.89062881674115E-10   7.62085733458768E-09  -6.75108495505288E-28   0.00000000000000E+00   0.00000000000000E+00
      0.00000000000000E+00   0.00000000000000E+00  -1.01894086729016E-14  -7.62084714515243E-09  -7.62085733456110E-09
     -2.10963371997684E-29
      5.30000000000000E-02
      7.95000000000000E-01   7.95000000000000E-01   0.00000000000000E+00   0.00000000000000E+00   7.90653378685200E-09
      2.89193558937150E-09   1.07984693762235E-08   1.14115277322182E-27   0.00000000000000E+00   0.00000000000000E+00
      0.00000000000000E+00   0.00000000000000E+00  -1.00792114565050E-14  -1.07984592970194E-08  -1.07984693762309E-08
      4.83860944948816E-30
      6.30000000000000E-02
      9.45000000000000E-01   9.45000000000000E-01   0.00000000000000E+00   0.00000000000000E+00   9.13146089470599E-09
      1.25362099733722E-08   2.16676708680782E-08  -6.63185859408659E-28   0.00000000000000E+00   0.00000000000000E+00
      0.00000000000000E+00   0.00000000000000E+00  -9.62356857183382E-15  -2.16676612445561E-08  -2.16676708681246E-08
     -1.57738668053314E-29
      7.30000000000000E-02
      1.09500000000000E+00   1.09500000000000E+00   0.00000000000000E+00   0.00000000000000E+00   1.09740304408985E-08
      5.87157812292759E-08   6.96898116701743E-08   7.75314585138735E-28   0.00000000000000E+00   0.00000000000000E+00
      0.00000000000000E+00   0.00000000000000E+00  -7.48748077632686E-15  -6.96898041826863E-08  -6.96898116701671E-08
     -5.80633133938579E-31
      8.30000000000000E-02
      1.24500000000000E+00   1.24500000000000E+00   0.00000000000000E+00   0.00000000000000E+00   1.73048486623979E-08
      2.54006606859714E-07   2.71311455522112E-07   1.21400711087658E-28   0.00000000000000E+00   0.00000000000000E+00
      0.00000000000000E+00   0.00000000000000E+00   1.61629425038007E-15  -2.71311457138414E-07  -2.71311455522120E-07
     -4.35474850453934E-30
      9.30000000000000E-02
      1.39500000000000E+00   1.39500000000000E+00   0.00000000000000E+00   0.00000000000000E+00   4.56055754679191E-08
      9.61210177388437E-07   1.00681575285636E-06   3.25799299714748E-27   0.00000000000000E+00   0.00000000000000E+00
      0.00000000000000E+00   0.00000000000000E+00   3.48706746727372E-14  -1.00681578772704E-06  -1.00681575285637E-06
      1.47093727264440E-29
      1.03000000000000E-01
      1.54500000000000E+00   1.54500000000000E+00   0.00000000000000E+00   0.00000000000000E+00   1.67865719323439E-07
      3.12985488509981E-06   3.29772060442325E-06  -2.20256526271607E-27   0.00000000000000E+00   0.00000000000000E+00
      0.00000000000000E+00   0.00000000000000E+00   1.37603587352701E-13  -3.29772074202683E-06  -3.29772060442324E-06
     -1.86770324750243E-29
      1.13000000000000E-01
      1.69500000000000E+00   1.69500000000000E+00   0.00000000000000E+00   0.00000000000000E+00   6.01692426798022E-07
      8.71674983748659E-06   9.31844226428462E-06   1.64350627866039E-27   0.00000000000000E+00   0.00000000000000E+00
      0.00000000000000E+00   0.00000000000000E+00   4.01194516997931E-13  -9.31844266547914E-06  -9.31844226428462E-06
      8.51595263109916E-30
