DF-ISE text

Info {
  version   = 1.0
  type      = xyplot
  datasets  = [
    "time"
    "ntype OuterVoltage" "ntype InnerVoltage" "ntype QuasiFermiPotential" "ntype DisplacementCurrent" "ntype eCurrent"
    "ntype hCurrent" "ntype TotalCurrent" "ntype Charge" "ptype OuterVoltage" "ptype InnerVoltage"
    "ptype QuasiFermiPotential" "ptype DisplacementCurrent" "ptype eCurrent" "ptype hCurrent" "ptype TotalCurrent"
    "ptype Charge" ]
  functions = [
    Time
    OuterVoltage InnerVoltage QuasiFermiPotential DisplacementCurrent eCurrent
    hCurrent TotalCurrent Charge OuterVoltage InnerVoltage
    QuasiFermiPotential DisplacementCurrent eCurrent hCurrent TotalCurrent
    Charge ]
}

Data {
      0.00000000000000E+00
      0.00000000000000E+00   0.00000000000000E+00   0.00000000000000E+00   0.00000000000000E+00   1.60406656463986E-08
     -1.60406656463979E-08   7.30141648378639E-22  -1.01166648113261E-27   0.00000000000000E+00   0.00000000000000E+00
      0.00000000000000E+00   0.00000000000000E+00  -1.51328098395374E-24  -1.22097836486376E-18  -1.22097987814474E-18
      4.74183726049839E-30
      0.00000000000000E+00
      0.00000000000000E+00   0.00000000000000E+00   0.00000000000000E+00   0.00000000000000E+00   1.54307090126106E-08
     -1.33574224558450E-08   2.07328655676556E-09   6.83406049182525E-28   0.00000000000000E+00   0.00000000000000E+00
      0.00000000000000E+00   0.00000000000000E+00   5.58607935957245E-10  -1.77076072887782E-16   5.58607758881173E-10
      2.43865916254203E-29
      0.00000000000000E+00
      0.00000000000000E+00   0.00000000000000E+00   0.00000000000000E+00   0.00000000000000E+00   1.51873812631594E-08
     -7.51546152799803E-09   7.67191973516134E-09  -6.39215747311439E-29   0.00000000000000E+00   0.00000000000000E+00
      0.00000000000000E+00   0.00000000000000E+00   5.58606528108173E-10  -8.23052626300527E-09  -7.67191973489710E-09
      3.87088755959053E-30
      5.00000000000000E-03
      7.50000000000000E-02   7.50000000000000E-02   0.00000000000000E+00   0.00000000000000E+00   1.73801900637720E-08
     -7.20125201136360E-09   1.01789380524084E-08   1.10681301075225E-29   0.00000000000000E+00   0.00000000000000E+00
      0.00000000000000E+00   0.00000000000000E+00   5.58430889943081E-10  -1.07373689421348E-08  -1.01789380521917E-08
      3.77411537060076E-30
      1.30000000000000E-02
      1.95000000000000E-01   1.95000000000000E-01   0.00000000000000E+00   0.00000000000000E+00   1.89408199019774E-08
     -6.83236915792028E-09   1.21084507440572E-08  -3.74052578160405E-28   0.00000000000000E+00   0.00000000000000E+00
      0.00000000000000E+00   0.00000000000000E+00   5.58248418244366E-10  -1.26666991622458E-08  -1.21084507440015E-08
     -8.61272482008892E-30
      2.30000000000000E-02
      3.45000000000000E-01   3.45000000000000E-01   0.00000000000000E+00   0.00000000000000E+00   2.05054553159435E-08
     -6.37631412963289E-09   1.41291411863106E-08   1.41027887691689E-28   0.00000000000000E+00   0.00000000000000E+00
      0.00000000000000E+00   0.00000000000000E+00   5.58073951982636E-10  -1.46872151383868E-08  -1.41291411864042E-08
     -4.35474850453934E-30
      3.30000000000000E-02
      4.95000000000000E-01   4.95000000000000E-01   0.00000000000000E+00   0.00000000000000E+00   2.20060271783931E-08
     -5.88225410197330E-09   1.61237730764198E-08  -3.55600370917419E-28   0.00000000000000E+00   0.00000000000000E+00
      0.00000000000000E+00   0.00000000000000E+00   5.57941545570700E-10  -1.66817146220582E-08  -1.61237730764875E-08
      2.87413401299597E-29
      4.30000000000000E-02
      6.45000000000000E-01   6.45000000000000E-01   0.00000000000000E+00   0.00000000000000E+00   2.34487727706707E-08
     -5.12059333135612E-09   1.83281794393145E-08  -1.00091172659021E-29   0.00000000000000E+00   0.00000000000000E+00
      0.00000000000000E+00   0.00000000000000E+00   5.57837822159699E-10  -1.88860172615427E-08  -1.83281794393830E-08
     -7.45145855221176E-30
      5.30000000000000E-02
      7.95000000000000E-01   7.95000000000000E-01   0.00000000000000E+00   0.00000000000000E+00   2.46172178551366E-08
     -2.78695514053789E-09   2.18302627145987E-08   1.04312178974246E-27   0.00000000000000E+00   0.00000000000000E+00
      0.00000000000000E+00   0.00000000000000E+00   5.57754018569420E-10  -2.23880167331838E-08  -2.18302627146144E-08
     -1.15158904897818E-29
      6.30000000000000E-02
      9.45000000000000E-01   9.45000000000000E-01   0.00000000000000E+00   0.00000000000000E+00   2.57838281648802E-08
      7.56389159194529E-09   3.33477197568255E-08   3.76260855250370E-28   0.00000000000000E+00   0.00000000000000E+00
      0.00000000000000E+00   0.00000000000000E+00   5.57685196155737E-10  -3.39054049529705E-08  -3.33477197568148E-08
     -1.81931715300755E-29
      7.30000000000000E-02
      1.09500000000000E+00   1.09500000000000E+00   0.00000000000000E+00   0.00000000000000E+00   2.70346368486676E-08
      5.46358865230527E-08   8.16705233717203E-08   2.00505927324977E-28   0.00000000000000E+00   0.00000000000000E+00
      0.00000000000000E+00   0.00000000000000E+00   5.57627967427935E-10  -8.22281513391658E-08  -8.16705233717379E-08
     -8.03209168615034E-30
      8.30000000000000E-02
      1.24500000000000E+00   1.24500000000000E+00   0.00000000000000E+00   0.00000000000000E+00   3.32715385365302E-08
      2.50566345265704E-07   2.83837883802234E-07   1.83521198504912E-27   0.00000000000000E+00   0.00000000000000E+00
      0.00000000000000E+00   0.00000000000000E+00   5.57581027965942E-10  -2.84395464830201E-07  -2.83837883802235E-07
      2.90316566969289E-31
      9.30000000000000E-02
      1.39500000000000E+00   1.39500000000000E+00   0.00000000000000E+00   0.00000000000000E+00   6.22580842267397E-08
      9.57973928264499E-07   1.02023201249124E-06   1.66482035328539E-27   0.00000000000000E+00   0.00000000000000E+00
      0.00000000000000E+00   0.00000000000000E+00   5.57543508596194E-10  -1.02078955599984E-06  -1.02023201249124E-06
      6.77405322928342E-30
      1.03000000000000E-01
      1.54500000000000E+00   1.54500000000000E+00   0.00000000000000E+00   0.00000000000000E+00   1.85511486897199E-07
      3.12667201745945E-06   3.31218350435665E-06  -9.44194151449495E-28   0.00000000000000E+00   0.00000000000000E+00
      0.00000000000000E+00   0.00000000000000E+00   5.57514108749556E-10  -3.31274101846543E-06  -3.31218350435668E-06
     -8.80626919806845E-30
      1.13000000000000E-01
      1.69500000000000E+00   1.69500000000000E+00   0.00000000000000E+00   0.00000000000000E+00   6.20110289271684E-07
      8.71364742319639E-06   9.33375771246807E-06  -3.38001063093995E-28   0.00000000000000E+00   0.00000000000000E+00
      0.00000000000000E+00   0.00000000000000E+00   5.57487263886708E-10  -9.33431519973196E-06  -9.33375771246808E-06
      2.02253874988605E-29
      1.23000000000000E-01
      1.84500000000000E+00   1.84500000000000E+00   0.00000000000000E+00   0.00000000000000E+00   1.86344436101462E-06
      2.07132054512453E-05   2.25766498122599E-05  -1.82598233752422E-27   0.00000000000000E+00   0.00000000000000E+00
      0.00000000000000E+00   0.00000000000000E+00   5.57435596459054E-10  -2.25772072478565E-05  -2.25766498122601E-05
      1.30642455136180E-29
      1.33000000000000E-01
      1.99500000000000E+00   1.99500000000000E+00   0.00000000000000E+00   0.00000000000000E+00   4.77092537655586E-06
      4.21844972177984E-05   4.69554225943543E-05   3.27927078220161E-27   0.00000000000000E+00   0.00000000000000E+00
      0.00000000000000E+00   0.00000000000000E+00   5.57269336519770E-10  -4.69559798636909E-05  -4.69554225943544E-05
     -2.22576034676455E-29
      1.43000000000000E-01
      2.14500000000000E+00   2.14500000000000E+00   0.00000000000000E+00   0.00000000000000E+00   1.04475481845244E-05
      7.46518483969287E-05   8.50993965814530E-05  -2.04586084743258E-27   0.00000000000000E+00   0.00000000000000E+00
      0.00000000000000E+00   0.00000000000000E+00   5.56813703527587E-10  -8.50999533951567E-05  -8.50993965814532E-05
     -9.38690233200702E-30
      1.53000000000000E-01
      2.29500000000000E+00   2.29500000000000E+00   0.00000000000000E+00   0.00000000000000E+00   2.00067149385218E-05
      1.17315315925716E-04   1.37322030864238E-04  -3.46640400266056E-27   0.00000000000000E+00   0.00000000000000E+00
      0.00000000000000E+00   0.00000000000000E+00   5.55862746706478E-10  -1.37322586726985E-04  -1.37322030864238E-04
      6.48373666231413E-30
      1.63000000000000E-01
      2.44500000000000E+00   2.44500000000000E+00   0.00000000000000E+00   0.00000000000000E+00   3.43967561072044E-05
      1.67628410864607E-04   2.02025166971811E-04   3.24806175125241E-27   0.00000000000000E+00   0.00000000000000E+00
      0.00000000000000E+00   0.00000000000000E+00   5.54273056672129E-10  -2.02025721244868E-04  -2.02025166971811E-04
     -1.06449407888739E-29
      1.73000000000000E-01
      2.59500000000000E+00   2.59500000000000E+00   0.00000000000000E+00   0.00000000000000E+00   5.43764546316862E-05
      2.22423876763332E-04   2.76800331395018E-04  -3.99763493411987E-27   0.00000000000000E+00   0.00000000000000E+00
      0.00000000000000E+00   0.00000000000000E+00   5.52019713279653E-10  -2.76800883414731E-04  -2.76800331395017E-04
      9.19335795402750E-30
      1.83000000000000E-01
      2.74500000000000E+00   2.74500000000000E+00   0.00000000000000E+00   0.00000000000000E+00   8.05710488198827E-05
      2.78767940258892E-04   3.59338989078774E-04   2.27221099747964E-28   0.00000000000000E+00   0.00000000000000E+00
      0.00000000000000E+00   0.00000000000000E+00   5.49194178254170E-10  -3.59339538272953E-04  -3.59338989078774E-04
     -8.99981357604797E-30
      1.93000000000000E-01
      2.89500000000000E+00   2.89500000000000E+00   0.00000000000000E+00   0.00000000000000E+00   1.13508758152188E-04
      3.34215849370224E-04   4.47724607522412E-04   3.38542987352338E-27   0.00000000000000E+00   0.00000000000000E+00
      0.00000000000000E+00   0.00000000000000E+00   5.45936965587007E-10  -4.47725153459379E-04  -4.47724607522413E-04
      1.07417129778637E-29
      2.03000000000000E-01
      3.04500000000000E+00   3.04500000000000E+00   0.00000000000000E+00   0.00000000000000E+00   1.53719708517747E-04
      3.87026787626058E-04   5.40746496143805E-04   3.26434367204994E-27   0.00000000000000E+00   0.00000000000000E+00
      0.00000000000000E+00   0.00000000000000E+00   5.42363222692432E-10  -5.40747038507027E-04  -5.40746496143805E-04
     -2.00318431208810E-29
      2.13000000000000E-01
      3.19500000000000E+00   3.19500000000000E+00   0.00000000000000E+00   0.00000000000000E+00   2.01833862611770E-04
      4.36274205014222E-04   6.38108067625992E-04   3.87306493384280E-28   0.00000000000000E+00   0.00000000000000E+00
      0.00000000000000E+00   0.00000000000000E+00   5.38529953223472E-10  -6.38108606155932E-04  -6.38108067625978E-04
      1.63544999392700E-29
      2.23000000000000E-01
      3.34500000000000E+00   3.34500000000000E+00   0.00000000000000E+00   0.00000000000000E+00   2.58592856117994E-04
      4.81607074771469E-04   7.40199930889463E-04   1.32778701208129E-27   0.00000000000000E+00   0.00000000000000E+00
      0.00000000000000E+00   0.00000000000000E+00   5.34451444609361E-10  -7.40200465340920E-04  -7.40199930889476E-04
     -5.70955915039602E-30
      2.33000000000000E-01
      3.49500000000000E+00   3.49500000000000E+00   0.00000000000000E+00   0.00000000000000E+00   3.24843513798654E-04
      5.23024050534467E-04   8.47867564333121E-04  -7.46999042640330E-27   0.00000000000000E+00   0.00000000000000E+00
      0.00000000000000E+00   0.00000000000000E+00   5.30118989281190E-10  -8.47868094452108E-04  -8.47867564333119E-04
     -8.90304138705821E-30
      2.43000000000000E-01
      3.64500000000000E+00   3.64500000000000E+00   0.00000000000000E+00   0.00000000000000E+00   4.01514543252537E-04
      5.60733382940085E-04   9.62247926192622E-04   5.60552904723203E-28   0.00000000000000E+00   0.00000000000000E+00
      0.00000000000000E+00   0.00000000000000E+00   5.25511726289445E-10  -9.62248451704349E-04  -9.62247926192623E-04
      6.38696447332437E-30
      2.53000000000000E-01
      3.79500000000000E+00   3.79500000000000E+00   0.00000000000000E+00   0.00000000000000E+00   4.89596029432353E-04
      5.95052853739999E-04   1.08464888317235E-03   3.57522432917955E-27   0.00000000000000E+00   0.00000000000000E+00
      0.00000000000000E+00   0.00000000000000E+00   5.20602953067380E-10  -1.08464940377531E-03  -1.08464888317235E-03
     -2.94187454528880E-29
      2.63000000000000E-01
      3.94500000000000E+00   3.94500000000000E+00   0.00000000000000E+00   0.00000000000000E+00   5.90122548532568E-04
      6.26338125797640E-04   1.21646067433021E-03  -5.87293479845799E-27   0.00000000000000E+00   0.00000000000000E+00
      0.00000000000000E+00   0.00000000000000E+00   5.15364241174855E-10  -1.21646118969444E-03  -1.21646067433020E-03
     -9.96753546594560E-30
      2.73000000000000E-01
      4.09500000000000E+00   4.09500000000000E+00   0.00000000000000E+00   0.00000000000000E+00   7.04154361094967E-04
      6.54938470236307E-04   1.35909283133127E-03   2.33995152977247E-28   0.00000000000000E+00   0.00000000000000E+00
      0.00000000000000E+00   0.00000000000000E+00   5.09767966850055E-10  -1.35909334109924E-03  -1.35909283133127E-03
     -4.93538163847792E-30
      2.83000000000000E-01
      4.24500000000000E+00   4.24500000000000E+00   0.00000000000000E+00   0.00000000000000E+00   8.32756571914810E-04
      6.81173255691438E-04   1.51392982760625E-03  -5.36122765612737E-27   0.00000000000000E+00   0.00000000000000E+00
      0.00000000000000E+00   0.00000000000000E+00   5.03788556576919E-10  -1.51393033139480E-03  -1.51392982760624E-03
      9.96753546594560E-30
      2.93000000000000E-01
      4.39500000000000E+00   4.39500000000000E+00   0.00000000000000E+00   0.00000000000000E+00   9.76975139095592E-04
      7.05322223995286E-04   1.68229736309088E-03  -2.44170748649521E-27   0.00000000000000E+00   0.00000000000000E+00
      0.00000000000000E+00   0.00000000000000E+00   4.97402932847032E-10  -1.68229786049379E-03  -1.68229736309086E-03
      1.60641833723007E-29
      3.03000000000000E-01
      4.54500000000000E+00   4.54500000000000E+00   0.00000000000000E+00   0.00000000000000E+00   1.13781009847799E-03
      7.27624126922584E-04   1.86543422540057E-03   4.30626563785547E-27   0.00000000000000E+00   0.00000000000000E+00
      0.00000000000000E+00   0.00000000000000E+00   4.90590693850187E-10  -1.86543471599128E-03  -1.86543422540059E-03
      2.80639348070313E-30
      3.13000000000000E-01
      4.69500000000000E+00   4.69500000000000E+00   0.00000000000000E+00   0.00000000000000E+00   1.31619216581558E-03
      7.48279777635931E-04   2.06447194345151E-03   9.70673441661819E-28   0.00000000000000E+00   0.00000000000000E+00
      0.00000000000000E+00   0.00000000000000E+00   4.83334340617911E-10  -2.06447242678585E-03  -2.06447194345151E-03
     -1.61609555612904E-29
      3.23000000000000E-01
      4.84500000000000E+00   4.84500000000000E+00   0.00000000000000E+00   0.00000000000000E+00   1.51296913162695E-03
      7.67456954749623E-04   2.28042608637657E-03   2.57196285287543E-28   0.00000000000000E+00   0.00000000000000E+00
      0.00000000000000E+00   0.00000000000000E+00   4.75619714843955E-10  -2.28042656199628E-03  -2.28042608637657E-03
     -7.06436979625271E-30
      3.33000000000000E-01
      4.99500000000000E+00   4.99500000000000E+00   0.00000000000000E+00   0.00000000000000E+00   1.72890176921212E-03
      7.85295781936915E-04   2.51419755114903E-03   5.10763613487970E-27   0.00000000000000E+00   0.00000000000000E+00
      0.00000000000000E+00   0.00000000000000E+00   4.67436759631395E-10  -2.51419801858581E-03  -2.51419755114905E-03
      4.54829288251887E-30
      3.43000000000000E-01
      5.14500000000000E+00   5.14500000000000E+00   0.00000000000000E+00   0.00000000000000E+00   1.96466483815037E-03
      8.01913907369010E-04   2.76657874551938E-03  -3.25783574234038E-28   0.00000000000000E+00   0.00000000000000E+00
      0.00000000000000E+00   0.00000000000000E+00   4.58780512557462E-10  -2.76657920429990E-03  -2.76657874551938E-03
      3.24186833115706E-29
      3.53000000000000E-01
      5.29500000000000E+00   5.29500000000000E+00   0.00000000000000E+00   0.00000000000000E+00   2.22084958924887E-03
      8.17411129806898E-04   3.03826071905576E-03   7.58386709979700E-27   0.00000000000000E+00   0.00000000000000E+00
      0.00000000000000E+00   0.00000000000000E+00   4.49652008948428E-10  -3.03826116870776E-03  -3.03826071905575E-03
     -1.06449407888739E-29
      3.63000000000000E-01
      5.44500000000000E+00   5.44500000000000E+00   0.00000000000000E+00   0.00000000000000E+00   2.49796607354502E-03
      8.31873303405087E-04   3.32983937695010E-03   8.89278353502529E-27   0.00000000000000E+00   0.00000000000000E+00
      0.00000000000000E+00   0.00000000000000E+00   4.40058739569850E-10  -3.32983981700883E-03  -3.32983937695009E-03
      5.80633133938579E-30
      3.73000000000000E-01
      5.59500000000000E+00   5.59500000000000E+00   0.00000000000000E+00   0.00000000000000E+00   2.79644450199367E-03
      8.45375492556262E-04   3.64181999454994E-03  -1.05070404195635E-27   0.00000000000000E+00   0.00000000000000E+00
      0.00000000000000E+00   0.00000000000000E+00   4.30014536994784E-10  -3.64182042456447E-03  -3.64181999454993E-03
      1.84834880970448E-29
      3.83000000000000E-01
      5.74500000000000E+00   5.74500000000000E+00   0.00000000000000E+00   0.00000000000000E+00   3.11663523839821E-03
      8.57984439486310E-04   3.97461967788452E-03   7.23372112698479E-28   0.00000000000000E+00   0.00000000000000E+00
      0.00000000000000E+00   0.00000000000000E+00   4.19539037817931E-10  -3.97462009742356E-03  -3.97461967788452E-03
     -1.15158904897818E-29
      3.93000000000000E-01
      5.89500000000000E+00   5.89500000000000E+00   0.00000000000000E+00   0.00000000000000E+00   3.45880732226489E-03
      8.69760448978276E-04   4.32856777124317E-03  -4.37328037873088E-27   0.00000000000000E+00   0.00000000000000E+00
      0.00000000000000E+00   0.00000000000000E+00   4.08656936489495E-10  -4.32856817990010E-03  -4.32856777124316E-03
     -1.43222839704849E-29
      4.03000000000000E-01
      6.04500000000000E+00   6.04500000000000E+00   0.00000000000000E+00   0.00000000000000E+00   3.82314577252517E-03
      8.80758801498986E-04   4.70390457402416E-03   3.82378369659976E-27   0.00000000000000E+00   0.00000000000000E+00
      0.00000000000000E+00   0.00000000000000E+00   3.97397042646090E-10  -4.70390497142119E-03  -4.70390457402414E-03
      1.85802602860345E-29
      4.13000000000000E-01
      6.19500000000000E+00   6.19500000000000E+00   0.00000000000000E+00   0.00000000000000E+00   4.20974822132121E-03
      8.91030794815071E-04   5.10077901613628E-03  -5.41941193475747E-27   0.00000000000000E+00   0.00000000000000E+00
      0.00000000000000E+00   0.00000000000000E+00   3.85790796304269E-10  -5.10077940192705E-03  -5.10077901613626E-03
     -2.45801360033998E-29
      4.23000000000000E-01
      6.34500000000000E+00   6.34500000000000E+00   0.00000000000000E+00   0.00000000000000E+00   4.61862164006127E-03
      9.00624496347298E-04   5.51924613640857E-03  -2.09729526588064E-28   0.00000000000000E+00   0.00000000000000E+00
      0.00000000000000E+00   0.00000000000000E+00   3.73869714619318E-10  -5.51924651027825E-03  -5.51924613640853E-03
      5.80633133938579E-30
      4.33000000000000E-01
      6.49500000000000E+00   6.49500000000000E+00   0.00000000000000E+00   0.00000000000000E+00   5.04968003030615E-03
      9.09585270741648E-04   5.95926530104780E-03   5.21144850061847E-27   0.00000000000000E+00   0.00000000000000E+00
      0.00000000000000E+00   0.00000000000000E+00   3.61661599830916E-10  -5.95926566270938E-03  -5.95926530104778E-03
      5.80633133938579E-30
      4.43000000000000E-01
      6.64500000000000E+00   6.64500000000000E+00   0.00000000000000E+00   0.00000000000000E+00   5.50274389967457E-03
      9.17956133142567E-04   6.42070003281714E-03   5.71352681014461E-27   0.00000000000000E+00   0.00000000000000E+00
      0.00000000000000E+00   0.00000000000000E+00   3.49186188099987E-10  -6.42070038200328E-03  -6.42070003281710E-03
     -1.51932336713928E-29
      4.53000000000000E-01
      6.79500000000000E+00   6.79500000000000E+00   0.00000000000000E+00   0.00000000000000E+00   5.97754212623516E-03
      9.25777969293919E-04   6.90332009552908E-03  -9.01505519581386E-28   0.00000000000000E+00   0.00000000000000E+00
      0.00000000000000E+00   0.00000000000000E+00   3.36451737723211E-10  -6.90332043198083E-03  -6.90332009552909E-03
      3.48379880363147E-30
      4.63000000000000E-01
      6.94500000000000E+00   6.94500000000000E+00   0.00000000000000E+00   0.00000000000000E+00   6.47371655385724E-03
      9.33089655418390E-04   7.40680620927563E-03  -3.71097151728494E-27   0.00000000000000E+00   0.00000000000000E+00
      0.00000000000000E+00   0.00000000000000E+00   3.23456618461551E-10  -7.40680653273223E-03  -7.40680620927561E-03
      1.00643076549354E-29
      4.73000000000000E-01
      7.09500000000000E+00   7.09500000000000E+00   0.00000000000000E+00   0.00000000000000E+00   6.99082924939372E-03
      9.39928108985886E-04   7.93075735837961E-03  -3.68859294858106E-27   0.00000000000000E+00   0.00000000000000E+00
      0.00000000000000E+00   0.00000000000000E+00   3.10644357068438E-10  -7.93075766902393E-03  -7.93075735837957E-03
      1.92576656089629E-29
      4.83000000000000E-01
      7.24500000000000E+00   7.24500000000000E+00   0.00000000000000E+00   0.00000000000000E+00   7.52837224073881E-03
      9.46328292797314E-04   8.47470053353612E-03  -9.62897796276492E-27   0.00000000000000E+00   0.00000000000000E+00
      0.00000000000000E+00   0.00000000000000E+00   2.97955236838176E-10  -8.47470083149133E-03  -8.47470053353610E-03
     -1.19997514347306E-29
      4.93000000000000E-01
      7.39500000000000E+00   7.39500000000000E+00   0.00000000000000E+00   0.00000000000000E+00   8.08577922941401E-03
      9.52323194252328E-04   9.03810242366634E-03   2.25742904561145E-27   0.00000000000000E+00   0.00000000000000E+00
      0.00000000000000E+00   0.00000000000000E+00   1.24771514568983E-09  -9.03810367138145E-03  -9.03810242366630E-03
      1.12255739228125E-29
      5.03000000000000E-01
      7.54500000000000E+00   7.54500000000000E+00   0.00000000000000E+00   0.00000000000000E+00   8.66243853796514E-03
      9.57943795717360E-04   9.62038233368250E-03   6.20041188599935E-27   0.00000000000000E+00   0.00000000000000E+00
      0.00000000000000E+00   0.00000000000000E+00   6.65256110287378E-08  -9.62044885929350E-03  -9.62038233368247E-03
     -1.52900058603826E-29
      5.13000000000000E-01
      7.69500000000000E+00   7.69500000000000E+00   0.00000000000000E+00   0.00000000000000E+00   9.25770599677499E-03
      9.63219046083222E-04   1.02209250428582E-02  -2.71298412528076E-27   0.00000000000000E+00   0.00000000000000E+00
      0.00000000000000E+00   0.00000000000000E+00   7.73225731995293E-07  -1.02216982685902E-02  -1.02209250428582E-02
      4.64506507150863E-30
      5.23000000000000E-01
      7.84500000000000E+00   7.84500000000000E+00   0.00000000000000E+00   0.00000000000000E+00   9.87091753454997E-03
      9.68175849059879E-04   1.08390933836098E-02  -5.37034843493966E-27   0.00000000000000E+00   0.00000000000000E+00
      0.00000000000000E+00   0.00000000000000E+00   3.88967396206581E-06  -1.08429830575719E-02  -1.08390933836098E-02
     -6.77405322928342E-31
      5.33000000000000E-01
      7.99500000000000E+00   7.99500000000000E+00   0.00000000000000E+00   0.00000000000000E+00   1.05014018939309E-02
      9.72839090146818E-04   1.14742409840778E-02   7.48411916599581E-27   0.00000000000000E+00   0.00000000000000E+00
      0.00000000000000E+00   0.00000000000000E+00   1.23055314498252E-05  -1.14865465155276E-02  -1.14742409840777E-02
      4.74183726049839E-30
      5.43000000000000E-01
      8.14500000000000E+00   8.14500000000000E+00   0.00000000000000E+00   0.00000000000000E+00   1.11484940273377E-02
      9.77231677615320E-04   1.21257257049531E-02  -6.52522773834349E-27   0.00000000000000E+00   0.00000000000000E+00
      0.00000000000000E+00   0.00000000000000E+00   2.93455528354390E-05  -1.21550712577885E-02  -1.21257257049531E-02
      7.74177511918105E-31
      5.53000000000000E-01
      8.29500000000000E+00   8.29500000000000E+00   0.00000000000000E+00   0.00000000000000E+00   1.18115459053595E-02
      9.81374605448925E-04   1.27929205108084E-02   5.25526210918358E-27   0.00000000000000E+00   0.00000000000000E+00
      0.00000000000000E+00   0.00000000000000E+00   5.81785429877226E-05  -1.28510990537961E-02  -1.27929205108083E-02
      1.24836123796794E-29
      5.63000000000000E-01
      8.44500000000000E+00   8.44500000000000E+00   0.00000000000000E+00   0.00000000000000E+00   1.24899349098597E-02
      9.85287030803595E-04   1.34752219406633E-02  -1.10885445032030E-26   0.00000000000000E+00   0.00000000000000E+00
      0.00000000000000E+00   0.00000000000000E+00   1.01555418881839E-04  -1.35767773595451E-02  -1.34752219406633E-02
      1.49996892934133E-29
      5.73000000000000E-01
      8.59500000000000E+00   8.59500000000000E+00   0.00000000000000E+00   0.00000000000000E+00   1.31830708043755E-02
      9.88986360128616E-04   1.41720571645041E-02  -2.73381433896081E-29   0.00000000000000E+00   0.00000000000000E+00
      0.00000000000000E+00   0.00000000000000E+00   1.61780477228613E-04  -1.43338376417327E-02  -1.41720571645041E-02
     -3.96765974858029E-29
      5.83000000000000E-01
      8.74500000000000E+00   8.74500000000000E+00   0.00000000000000E+00   0.00000000000000E+00   1.38904003648712E-02
      9.92488354433942E-04   1.48828887193052E-02  -1.87012255222717E-28   0.00000000000000E+00   0.00000000000000E+00
      0.00000000000000E+00   0.00000000000000E+00   2.40784289350531E-04  -1.51236730086556E-02  -1.48828887193051E-02
     -1.11288017338228E-29
      5.93000000000000E-01
      8.89500000000000E+00   8.89500000000000E+00   0.00000000000000E+00   0.00000000000000E+00   1.46114101247761E-02
      9.95807248421472E-04   1.56072173731976E-02  -4.94462338252644E-27   0.00000000000000E+00   0.00000000000000E+00
      0.00000000000000E+00   0.00000000000000E+00   3.40219596182411E-04  -1.59474369693800E-02  -1.56072173731976E-02
     -1.38384230255361E-29
      6.03000000000000E-01
      9.04500000000001E+00   9.04500000000001E+00   0.00000000000000E+00   0.00000000000000E+00   1.53456270977333E-02
      9.98955882560171E-04   1.63445829802935E-02  -9.99390588744531E-27   0.00000000000000E+00   0.00000000000000E+00
      0.00000000000000E+00   0.00000000000000E+00   4.61547111962903E-04  -1.68061300922564E-02  -1.63445829802935E-02
     -1.83867159080550E-30
      6.13000000000000E-01
      9.19500000000001E+00   9.19500000000001E+00   0.00000000000000E+00   0.00000000000000E+00   1.60926174085821E-02
      1.00194584625020E-03   1.70945632548323E-02   1.41239009830559E-27   0.00000000000000E+00   0.00000000000000E+00
      0.00000000000000E+00   0.00000000000000E+00   6.06102172705440E-04  -1.77006654275377E-02  -1.70945632548323E-02
      2.27414644125943E-29
      6.23000000000000E-01
      9.34500000000000E+00   9.34500000000000E+00   0.00000000000000E+00   0.00000000000000E+00   1.68519828520616E-02
      1.00478762941821E-03   1.78567704814799E-02  -2.23055057011955E-27   0.00000000000000E+00   0.00000000000000E+00
      0.00000000000000E+00   0.00000000000000E+00   7.75142930566021E-04  -1.86319134120458E-02  -1.78567704814798E-02
      1.08384851668535E-29
      6.33000000000000E-01
      9.49500000000000E+00   9.49500000000000E+00   0.00000000000000E+00   0.00000000000000E+00   1.76233555396254E-02
      1.00749077878217E-03   1.86308463184076E-02  -4.45311743464744E-27   0.00000000000000E+00   0.00000000000000E+00
      0.00000000000000E+00   0.00000000000000E+00   9.69884392115431E-04  -1.96007307105230E-02  -1.86308463184076E-02
     -1.02578520329149E-29
      6.43000000000000E-01
      9.64500000000000E+00   9.64500000000000E+00   0.00000000000000E+00   0.00000000000000E+00   1.84063909741816E-02
      1.01006405366517E-03   1.94164550278468E-02  -5.24040757817365E-27   0.00000000000000E+00   0.00000000000000E+00
      0.00000000000000E+00   0.00000000000000E+00   1.19152711929584E-03  -2.06079821471426E-02  -1.94164550278467E-02
     -1.98382987429014E-29
      6.53000000000000E-01
      9.79500000000001E+00   9.79500000000001E+00   0.00000000000000E+00   0.00000000000000E+00   1.92007600881323E-02
      1.01251557495530E-03   2.02132756630875E-02  -4.36648213245435E-27   0.00000000000000E+00   0.00000000000000E+00
      0.00000000000000E+00   0.00000000000000E+00   1.44129305614978E-03  -2.16545687192373E-02  -2.02132756630875E-02
     -1.41287395925054E-29
      6.63000000000000E-01
      9.94500000000001E+00   9.94500000000001E+00   0.00000000000000E+00   0.00000000000000E+00   2.00061409605623E-02
      1.01485296005406E-03   2.10209939206163E-02  -9.79999861375708E-27   0.00000000000000E+00   0.00000000000000E+00
      0.00000000000000E+00   0.00000000000000E+00   1.72047017356568E-03  -2.27414640941819E-02  -2.10209939206162E-02
     -4.25797631554958E-30
      6.73000000000000E-01
      1.00950000000000E+01   1.00950000000000E+01   0.00000000000000E+00   0.00000000000000E+00   2.08222110373847E-02
      1.01708343686115E-03   2.18392944742459E-02  -3.43248535041965E-27   0.00000000000000E+00   0.00000000000000E+00
      0.00000000000000E+00   0.00000000000000E+00   2.03045175911480E-03  -2.38697462333606E-02  -2.18392944742458E-02
     -3.38702661464171E-30
      6.83000000000000E-01