DF-ISE text

Info {
  version   = 1.0
  type      = xyplot
  datasets  = [
    "time"
    "Cathode OuterVoltage" "Cathode InnerVoltage" "Cathode QuasiFermiPotential" "Cathode DisplacementCurrent" "Cathode eCurrent"
    "Cathode hCurrent" "Cathode TotalCurrent" "Cathode Charge" "Anode OuterVoltage" "Anode InnerVoltage"
    "Anode QuasiFermiPotential" "Anode DisplacementCurrent" "Anode eCurrent" "Anode hCurrent" "Anode TotalCurrent"
    "Anode Charge" ]
  functions = [
    Time
    OuterVoltage InnerVoltage QuasiFermiPotential DisplacementCurrent eCurrent
    hCurrent TotalCurrent Charge OuterVoltage InnerVoltage
    QuasiFermiPotential DisplacementCurrent eCurrent hCurrent TotalCurrent
    Charge ]
}

Data {
      0.00000000000000E+00
      0.00000000000000E+00   0.00000000000000E+00   0.00000000000000E+00   0.00000000000000E+00   1.01966106010120E-20
      2.91122967235805E-21   1.31078402733700E-20  -1.97415265539117E-29   0.00000000000000E+00   0.00000000000000E+00
      0.00000000000000E+00   0.00000000000000E+00   9.34919603127990E-25  -1.82467854013942E-19  -1.82466919094339E-19
      3.87088755959053E-31
      0.00000000000000E+00
      0.00000000000000E+00   0.00000000000000E+00   0.00000000000000E+00   0.00000000000000E+00  -8.17311277137516E-23
      2.88455488195212E-21   2.80282375423837E-21  -1.11288017338228E-28   0.00000000000000E+00   0.00000000000000E+00
      0.00000000000000E+00   0.00000000000000E+00   2.19029166758496E-26  -1.82467854298423E-19  -1.82467832395506E-19
     -7.74177511918105E-31
      0.00000000000000E+00
      0.00000000000000E+00   0.00000000000000E+00   0.00000000000000E+00   0.00000000000000E+00  -3.85998290541704E-23
     -9.63665959156173E-24  -4.82364886457321E-23  -1.82899437190652E-28   0.00000000000000E+00   0.00000000000000E+00
      0.00000000000000E+00   0.00000000000000E+00   4.25266562519638E-27   3.48664821286745E-21   3.48665246553307E-21
      0.00000000000000E+00
      1.00000000000000E-02
      1.50000000000000E-01   1.50000000000000E-01   0.00000000000000E+00   0.00000000000000E+00   2.68450086588405E-12
      8.01140678385985E-13   3.48564154427004E-12  -6.73534435368751E-29   0.00000000000000E+00   0.00000000000000E+00
      0.00000000000000E+00   0.00000000000000E+00  -4.09827095956941E-13  -3.07581442017855E-12  -3.48564151613549E-12
      1.93544377979526E-31
      2.00000000000000E-02
      3.00000000000000E-01   3.00000000000000E-01   0.00000000000000E+00   0.00000000000000E+00   4.33350598575868E-12
      8.50722321909841E-13   5.18422830766852E-12   1.04707508486924E-28   0.00000000000000E+00   0.00000000000000E+00
      0.00000000000000E+00   0.00000000000000E+00  -4.13424228706941E-13  -4.77080407261237E-12  -5.18422830131931E-12
      1.93544377979526E-31
      3.00000000000000E-02
      4.50000000000000E-01   4.50000000000000E-01   0.00000000000000E+00   0.00000000000000E+00   5.93388780001515E-12
      9.00527545117567E-13   6.83441534513272E-12   2.78897448668497E-28   0.00000000000000E+00   0.00000000000000E+00
      0.00000000000000E+00   0.00000000000000E+00  -4.15394020455923E-13  -6.41902131772368E-12  -6.83441533817961E-12
     -5.80633133938579E-31
      4.00000000000000E-02
      6.00000000000000E-01   6.00000000000000E-01   0.00000000000000E+00   0.00000000000000E+00   7.39898709820443E-12
      9.49974299596065E-13   8.34896139780049E-12  -2.31866164819472E-28   0.00000000000000E+00   0.00000000000000E+00
      0.00000000000000E+00   0.00000000000000E+00  -4.17143304070154E-13  -7.93181809066257E-12  -8.34896139473272E-12
      0.00000000000000E+00
      5.00000000000000E-02
      7.50000000000000E-01   7.50000000000000E-01   0.00000000000000E+00   0.00000000000000E+00   8.57077007814725E-12
      9.97026275351673E-13   9.56779635349892E-12  -8.43853487990735E-29   0.00000000000000E+00   0.00000000000000E+00
      0.00000000000000E+00   0.00000000000000E+00  -4.18768607665269E-13  -9.14902774605741E-12  -9.56779635372268E-12
     -3.87088755959053E-31
      6.00000000000000E-02
      9.00000000000000E-01   9.00000000000000E-01   0.00000000000000E+00   0.00000000000000E+00   9.76996369233337E-12
      1.04315219707543E-12   1.08131158894088E-11  -1.08771940424494E-28   0.00000000000000E+00   0.00000000000000E+00
      0.00000000000000E+00   0.00000000000000E+00  -4.20300344251539E-13  -1.03928155513410E-11  -1.08131158955926E-11
     -1.93544377979526E-31
      7.00000000000000E-02
      1.05000000000000E+00   1.05000000000000E+00   0.00000000000000E+00   0.00000000000000E+00   1.10256175615741E-11
      1.09073461521596E-12   1.21163521767900E-11   9.85140883915789E-29   0.00000000000000E+00   0.00000000000000E+00
      0.00000000000000E+00   0.00000000000000E+00  -4.21739077062451E-13  -1.16946130904203E-11  -1.21163521674827E-11
     -5.80633133938579E-31
      8.00000000000000E-02
      1.20000000000000E+00   1.20000000000000E+00   0.00000000000000E+00   0.00000000000000E+00   1.22080423412092E-11
      1.14167354138240E-12   1.33497158825916E-11   1.27739289466487E-29   0.00000000000000E+00   0.00000000000000E+00
      0.00000000000000E+00   0.00000000000000E+00  -4.23069538474818E-13  -1.29266463443363E-11  -1.33497158828111E-11
     -3.87088755959053E-31
      9.00000000000000E-02
      1.35000000000000E+00   1.35000000000000E+00   0.00000000000000E+00   0.00000000000000E+00   1.37716655334111E-11
      1.19752747432267E-12   1.49691930077338E-11   5.20634376764926E-29   0.00000000000000E+00   0.00000000000000E+00
      0.00000000000000E+00   0.00000000000000E+00  -4.24283621409196E-13  -1.45449093739672E-11  -1.49691929953764E-11
      1.93544377979526E-31
      1.00000000000000E-01
      1.50000000000000E+00   1.50000000000000E+00   0.00000000000000E+00   0.00000000000000E+00   1.54729851928433E-11
      1.25885733572563E-12   1.67318425285689E-11   6.19342009534484E-30   0.00000000000000E+00   0.00000000000000E+00
      0.00000000000000E+00   0.00000000000000E+00  -4.25397123002709E-13  -1.63064453991149E-11  -1.67318425221176E-11
     -1.93544377979526E-31
      1.10000000000000E-01
      1.65000000000000E+00   1.65000000000000E+00   0.00000000000000E+00   0.00000000000000E+00   1.69337757043388E-11
      1.32483647541709E-12   1.82586121797559E-11  -8.34176269091758E-29   0.00000000000000E+00   0.00000000000000E+00
      0.00000000000000E+00   0.00000000000000E+00  -4.26436926648795E-13  -1.78321752542457E-11  -1.82586121808945E-11
      5.80633133938579E-31
      1.20000000000000E-01
      1.80000000000000E+00   1.80000000000000E+00   0.00000000000000E+00   0.00000000000000E+00   1.79108322932823E-11
      1.39331416124138E-12   1.93041464545237E-11   3.42573549023762E-29   0.00000000000000E+00   0.00000000000000E+00
      0.00000000000000E+00   0.00000000000000E+00  -4.27425731566894E-13  -1.88767207130908E-11  -1.93041464446577E-11
     -3.87088755959053E-31
      1.30000000000000E-01
      1.95000000000000E+00   1.95000000000000E+00   0.00000000000000E+00   0.00000000000000E+00   1.84157554314434E-11
      1.46252250045718E-12   1.98782779319006E-11   5.39988814562878E-29   0.00000000000000E+00   0.00000000000000E+00
      0.00000000000000E+00   0.00000000000000E+00  -4.28379475898470E-13  -1.94498984602801E-11  -1.98782779361786E-11
      0.00000000000000E+00
      1.40000000000000E-01
      2.10000000000000E+00   2.10000000000000E+00   0.00000000000000E+00   0.00000000000000E+00   1.87604332989988E-11
      1.53276831033248E-12   2.02932016093313E-11  -5.18698932985130E-29   0.00000000000000E+00   0.00000000000000E+00
      0.00000000000000E+00   0.00000000000000E+00  -4.29307857520738E-13  -1.98638937733724E-11  -2.02932016308931E-11
     -3.87088755959053E-31
      1.50000000000000E-01
      2.25000000000000E+00   2.25000000000000E+00   0.00000000000000E+00   0.00000000000000E+00   1.91313133292363E-11
      1.60599702396796E-12   2.07373103532043E-11  -1.56770946163416E-29   0.00000000000000E+00   0.00000000000000E+00
      0.00000000000000E+00   0.00000000000000E+00  -4.30216576180517E-13  -2.03070937600227E-11  -2.07373103362032E-11
      5.80633133938579E-31
      1.60000000000000E-01
      2.40000000000000E+00   2.40000000000000E+00   0.00000000000000E+00   0.00000000000000E+00   1.96319579867676E-11
      1.68483710671823E-12   2.13167950934858E-11  -8.47724375550325E-29   0.00000000000000E+00   0.00000000000000E+00
      0.00000000000000E+00   0.00000000000000E+00  -4.31110316305164E-13  -2.08856847659767E-11  -2.13167950822819E-11
      5.80633133938579E-31
      1.70000000000000E-01
      2.55000000000000E+00   2.55000000000000E+00   0.00000000000000E+00   0.00000000000000E+00   2.04445430605264E-11
      1.77220510283532E-12   2.22167481633617E-11  -2.05157040658298E-29   0.00000000000000E+00   0.00000000000000E+00
      0.00000000000000E+00   0.00000000000000E+00  -4.31993171962778E-13  -2.17847550044164E-11  -2.22167481763792E-11
     -5.80633133938579E-31
      1.80000000000000E-01
      2.70000000000000E+00   2.70000000000000E+00   0.00000000000000E+00   0.00000000000000E+00   2.18371804018947E-11
      1.87131207720022E-12   2.37084924790949E-11   2.84510235629904E-29   0.00000000000000E+00   0.00000000000000E+00
      0.00000000000000E+00   0.00000000000000E+00  -4.32868483953806E-13  -2.32756239951001E-11  -2.37084924790539E-11
      1.93544377979526E-31
      1.90000000000000E-01
      2.85000000000000E+00   2.85000000000000E+00   0.00000000000000E+00   0.00000000000000E+00   2.38535922774423E-11
      1.98564799760044E-12   2.58392402750427E-11  -4.33539406674139E-29   0.00000000000000E+00   0.00000000000000E+00
      0.00000000000000E+00   0.00000000000000E+00  -4.33739672527983E-13  -2.54055006154341E-11  -2.58392402879621E-11
      5.80633133938579E-31
      2.00000000000000E-01
      3.00000000000000E+00   3.00000000000000E+00   0.00000000000000E+00   0.00000000000000E+00   2.60774295352120E-11
      2.11892680650995E-12   2.81963563417220E-11   1.45158283484645E-29   0.00000000000000E+00   0.00000000000000E+00
      0.00000000000000E+00   0.00000000000000E+00  -4.34610621919436E-13  -2.77617457092158E-11  -2.81963563311353E-11
     -3.87088755959053E-31
      2.10000000000000E-01
      3.15000000000000E+00   3.15000000000000E+00   0.00000000000000E+00   0.00000000000000E+00   2.82217295231289E-11
      2.27531953982297E-12   3.04970490629518E-11   4.81925501169020E-29   0.00000000000000E+00   0.00000000000000E+00
      0.00000000000000E+00   0.00000000000000E+00  -4.35484102152887E-13  -3.00615649639896E-11  -3.04970490661425E-11
      0.00000000000000E+00
      2.20000000000000E-01
      3.30000000000000E+00   3.30000000000000E+00   0.00000000000000E+00   0.00000000000000E+00   3.01609130005190E-11
      2.45915959263527E-12   3.26200725931542E-11   1.61803099990884E-28   0.00000000000000E+00   0.00000000000000E+00
      0.00000000000000E+00   0.00000000000000E+00  -4.36359989096839E-13  -3.21837126004342E-11  -3.26200725895310E-11
      0.00000000000000E+00
      2.30000000000000E-01
      3.45000000000000E+00   3.45000000000000E+00   0.00000000000000E+00   0.00000000000000E+00   3.17077308361643E-11
      2.67418182049885E-12   3.43819126566631E-11   3.79346980839871E-29   0.00000000000000E+00   0.00000000000000E+00
      0.00000000000000E+00   0.00000000000000E+00  -4.37235396126082E-13  -3.39446772768861E-11  -3.43819126730122E-11
      0.00000000000000E+00
      2.40000000000000E-01
      3.60000000000000E+00   3.60000000000000E+00   0.00000000000000E+00   0.00000000000000E+00   3.29556798681031E-11
      2.92318252038669E-12   3.58788623884898E-11   6.96759760726295E-30   0.00000000000000E+00   0.00000000000000E+00
      0.00000000000000E+00   0.00000000000000E+00  -4.38106242086048E-13  -3.54407561688149E-11  -3.58788624109009E-11
      1.93544377979526E-31
      2.50000000000000E-01
      3.75000000000000E+00   3.75000000000000E+00   0.00000000000000E+00   0.00000000000000E+00   3.41226146150054E-11
      3.20839710424513E-12   3.73310117192505E-11  -8.84497807366435E-29   0.00000000000000E+00   0.00000000000000E+00
      0.00000000000000E+00   0.00000000000000E+00  -4.38968951489272E-13  -3.68920427783196E-11  -3.73310117298089E-11
     -1.93544377979526E-31
      2.60000000000000E-01
      3.90000000000000E+00   3.90000000000000E+00   0.00000000000000E+00   0.00000000000000E+00   3.53590232412257E-11
      3.53333801748015E-12   3.88923612587058E-11  -1.52706514225846E-28   0.00000000000000E+00   0.00000000000000E+00
      0.00000000000000E+00   0.00000000000000E+00  -4.39820848067371E-13  -3.84525404015191E-11  -3.88923612495865E-11
     -5.80633133938579E-31
      2.70000000000000E-01
      4.05000000000000E+00   4.05000000000000E+00   0.00000000000000E+00   0.00000000000000E+00   3.67709719343310E-11
      3.90533120679394E-12   4.06763031411249E-11   2.32640342331391E-28   0.00000000000000E+00   0.00000000000000E+00
      0.00000000000000E+00   0.00000000000000E+00  -4.40660356149800E-13  -4.02356427813587E-11  -4.06763031375085E-11
     -1.93544377979526E-31
      2.80000000000000E-01
      4.20000000000000E+00   4.20000000000000E+00   0.00000000000000E+00   0.00000000000000E+00   3.84618812663295E-11
      4.33752232715907E-12   4.27994035934886E-11   1.31029543892139E-28   0.00000000000000E+00   0.00000000000000E+00
      0.00000000000000E+00   0.00000000000000E+00  -4.41488129892552E-13  -4.23579154565164E-11  -4.27994035864089E-11
     -3.87088755959053E-31
      2.90000000000000E-01
      4.35000000000000E+00   4.35000000000000E+00   0.00000000000000E+00   0.00000000000000E+00   4.05923170757743E-11
      4.85071571877478E-12   4.54430327945491E-11  -9.79334552576403E-29   0.00000000000000E+00   0.00000000000000E+00
      0.00000000000000E+00   0.00000000000000E+00  -4.42306761870331E-13  -4.50007260276202E-11  -4.54430327894905E-11
     -1.93544377979526E-31
      3.00000000000000E-01
      4.50000000000000E+00   4.50000000000000E+00   0.00000000000000E+00   0.00000000000000E+00   4.34079571812486E-11
      5.47627705226263E-12   4.88842342335112E-11   1.66641709440372E-28   0.00000000000000E+00   0.00000000000000E+00
      0.00000000000000E+00   0.00000000000000E+00  -4.43119523446109E-13  -4.84411147082856E-11  -4.88842342317317E-11
      0.00000000000000E+00
      3.10000000000000E-01
      4.65000000000000E+00   4.65000000000000E+00   0.00000000000000E+00   0.00000000000000E+00   4.71078641891330E-11
      6.26131445088681E-12   5.33691786400198E-11   1.87350957884181E-28   0.00000000000000E+00   0.00000000000000E+00
      0.00000000000000E+00   0.00000000000000E+00  -4.43929837509811E-13  -5.29252488064420E-11  -5.33691786439518E-11
     -5.80633133938579E-31
      3.20000000000000E-01
      4.80000000000000E+00   4.80000000000000E+00   0.00000000000000E+00   0.00000000000000E+00   5.16670170672433E-11
      7.27801496405518E-12   5.89450320312985E-11  -8.82562363586640E-29   0.00000000000000E+00   0.00000000000000E+00
      0.00000000000000E+00   0.00000000000000E+00  -4.44740900066261E-13  -5.85002911420522E-11  -5.89450320421184E-11
      5.80633133938579E-31
      3.30000000000000E-01
      4.95000000000000E+00   4.95000000000000E+00   0.00000000000000E+00   0.00000000000000E+00   5.71234674689174E-11
      8.64131527408839E-12   6.57647827430058E-11   3.83217868399462E-29   0.00000000000000E+00   0.00000000000000E+00
      0.00000000000000E+00   0.00000000000000E+00  -4.45555418192009E-13  -6.53192273252444E-11  -6.57647827434364E-11
      1.93544377979526E-31
      3.40000000000000E-01
      5.10000000000000E+00   5.10000000000000E+00   0.00000000000000E+00   0.00000000000000E+00   6.39660279514434E-11
      1.05421760159246E-11   7.45082039673680E-11   1.99350709318912E-29   0.00000000000000E+00   0.00000000000000E+00
      0.00000000000000E+00   0.00000000000000E+00  -4.46375716866008E-13  -7.40618282488344E-11  -7.45082039657004E-11
      1.93544377979526E-31
      3.50000000000000E-01
      5.25000000000000E+00   5.25000000000000E+00   0.00000000000000E+00   0.00000000000000E+00   7.27952418499803E-11
      1.33120126365965E-11   8.61072544865768E-11   3.75476093280281E-28   0.00000000000000E+00   0.00000000000000E+00
      0.00000000000000E+00   0.00000000000000E+00  -4.47203907577363E-13  -8.56600505885728E-11  -8.61072544961502E-11
     -3.87088755959053E-31
      3.60000000000000E-01
      5.40000000000000E+00   5.40000000000000E+00   0.00000000000000E+00   0.00000000000000E+00   8.42174413851641E-11
      1.75609922947348E-11   1.01778433679899E-10  -2.55091490177016E-28   0.00000000000000E+00   0.00000000000000E+00
      0.00000000000000E+00   0.00000000000000E+00  -4.48041839106914E-13  -1.01330391826652E-10  -1.01778433665759E-10
      3.87088755959053E-31
      3.70000000000000E-01
      5.55000000000000E+00   5.55000000000000E+00   0.00000000000000E+00   0.00000000000000E+00   1.00109852463337E-10
      2.44995924290118E-11   1.24609444892349E-10  -1.04513964108944E-29   0.00000000000000E+00   0.00000000000000E+00
      0.00000000000000E+00   0.00000000000000E+00  -4.48891286266745E-13  -1.24160553622451E-10  -1.24609444908718E-10
      0.00000000000000E+00
      3.80000000000000E-01
      5.70000000000000E+00   5.70000000000000E+00   0.00000000000000E+00   0.00000000000000E+00   1.25648525741947E-10
      3.67140726518668E-11   1.62362598393814E-10  -5.41924258342674E-29   0.00000000000000E+00   0.00000000000000E+00
      0.00000000000000E+00   0.00000000000000E+00  -4.49755055312668E-13  -1.61912843335932E-10  -1.62362598391245E-10
     -1.93544377979526E-31
      3.90000000000000E-01
      5.85000000000000E+00   5.85000000000000E+00   0.00000000000000E+00   0.00000000000000E+00   1.73251315237816E-10
      6.00501534684677E-11   2.33301468706283E-10  -2.36511229890981E-28   0.00000000000000E+00   0.00000000000000E+00
      0.00000000000000E+00   0.00000000000000E+00  -4.50637337462294E-13  -2.32850831376848E-10  -2.33301468714311E-10
      7.74177511918105E-31
      4.00000000000000E-01
      6.00000000000000E+00   6.00000000000000E+00   0.00000000000000E+00   0.00000000000000E+00   2.73355529863438E-10
      1.07972948418707E-10   3.81328478282146E-10   2.00705519964769E-28   0.00000000000000E+00   0.00000000000000E+00
      0.00000000000000E+00   0.00000000000000E+00  -4.51540518346939E-13  -3.80876937760851E-10  -3.81328478279198E-10
     -1.93544377979526E-31
      4.10000000000000E-01
      6.15000000000000E+00   6.15000000000000E+00   0.00000000000000E+00   0.00000000000000E+00   5.00630902646998E-10
      2.10678576628630E-10   7.11309479275628E-10  -4.25604087176978E-28   0.00000000000000E+00   0.00000000000000E+00
      0.00000000000000E+00   0.00000000000000E+00  -4.52462262717975E-13  -7.10857016992225E-10  -7.11309479254943E-10
     -5.80633133938579E-31
      4.20000000000000E-01
      6.30000000000000E+00   6.30000000000000E+00   0.00000000000000E+00   0.00000000000000E+00   1.03223643100163E-09
      4.32605914225012E-10   1.46484234522664E-09  -6.05987447453897E-28   0.00000000000000E+00   0.00000000000000E+00
      0.00000000000000E+00   0.00000000000000E+00  -4.53395652339778E-13  -1.46438894959197E-09  -1.46484234524431E-09
     -1.93544377979526E-31
      4.30000000000000E-01
      6.45000000000000E+00   6.45000000000000E+00   0.00000000000000E+00   0.00000000000000E+00   2.27390136817897E-09
      9.05705045764686E-10   3.17960641394366E-09  -8.36111712871554E-29   0.00000000000000E+00   0.00000000000000E+00
      0.00000000000000E+00   0.00000000000000E+00  -4.54332950345469E-13  -3.17915208098288E-09  -3.17960641393323E-09
      1.93544377979526E-31
      4.40000000000000E-01
      6.60000000000000E+00   6.60000000000000E+00   0.00000000000000E+00   0.00000000000000E+00   5.13112865207947E-09
      1.89253911470821E-09   7.02366776678767E-09   5.72310725685459E-28   0.00000000000000E+00   0.00000000000000E+00
      0.00000000000000E+00   0.00000000000000E+00  -4.55273777979975E-13  -7.02321249299269E-09  -7.02366776677067E-09
     -7.74177511918105E-31
      4.50000000000000E-01
      6.75000000000000E+00   6.75000000000000E+00   0.00000000000000E+00   0.00000000000000E+00   1.15795949455382E-08
      3.90202385959777E-09   1.54816188051360E-08   3.67734318161100E-30   0.00000000000000E+00   0.00000000000000E+00
      0.00000000000000E+00   0.00000000000000E+00  -4.56236161440852E-13  -1.54811625689569E-08  -1.54816188051184E-08
     -3.87088755959053E-31
      4.60000000000000E-01
      6.90000000000000E+00   6.90000000000000E+00   0.00000000000000E+00   0.00000000000000E+00   2.58226448591617E-08
      7.89317178714116E-09   3.37158166463029E-08   3.92895087298438E-28   0.00000000000000E+00   0.00000000000000E+00
      0.00000000000000E+00   0.00000000000000E+00  -4.57266666401696E-13  -3.37153593796536E-08  -3.37158166463200E-08
      0.00000000000000E+00
      4.70000000000000E-01
      7.05000000000000E+00   7.05000000000000E+00   0.00000000000000E+00   0.00000000000000E+00   5.65706318990075E-08
      1.56207989291757E-08   7.21914308281831E-08   8.82562363586640E-29   0.00000000000000E+00   0.00000000000000E+00
      0.00000000000000E+00   0.00000000000000E+00  -4.58453957993374E-13  -7.21909723742358E-08  -7.21914308281938E-08
      0.00000000000000E+00
      4.80000000000000E-01
      7.20000000000000E+00   7.20000000000000E+00   0.00000000000000E+00   0.00000000000000E+00   1.21396735272460E-07
      3.01993626980863E-08   1.51596097970547E-07  -1.31745658090664E-27   0.00000000000000E+00   0.00000000000000E+00
      0.00000000000000E+00   0.00000000000000E+00  -4.59965445057164E-13  -1.51595638005080E-07  -1.51596097970525E-07
     -1.93544377979526E-31
      4.90000000000000E-01
      7.35000000000000E+00   7.35000000000000E+00   0.00000000000000E+00   0.00000000000000E+00   2.54772228970983E-07
      5.69795630335125E-08   3.11751792004495E-07   5.59827113305780E-28   0.00000000000000E+00   0.00000000000000E+00
      0.00000000000000E+00   0.00000000000000E+00  -4.62112863530583E-13  -3.11751329891638E-07  -3.11751792004502E-07
     -5.80633133938579E-31
      5.00000000000000E-01
      7.50000000000000E+00   7.50000000000000E+00   0.00000000000000E+00   0.00000000000000E+00   5.22276754499151E-07
      1.04830602843467E-07   6.27107357342618E-07  -8.27886076807424E-28   0.00000000000000E+00   0.00000000000000E+00
      0.00000000000000E+00   0.00000000000000E+00  -4.65473134535487E-13  -6.27106891869474E-07  -6.27107357342608E-07
      0.00000000000000E+00
      5.10000000000000E-01
      7.65000000000000E+00   7.65000000000000E+00   0.00000000000000E+00   0.00000000000000E+00   1.04439851869870E-06
      1.87860350360143E-07   1.23225886905884E-06   6.86792225260349E-28   0.00000000000000E+00   0.00000000000000E+00
      0.00000000000000E+00   0.00000000000000E+00  -4.71087305408574E-13  -1.23225839797154E-06  -1.23225886905884E-06
      1.93544377979526E-31
      5.20000000000000E-01
      7.80000000000000E+00   7.80000000000000E+00   0.00000000000000E+00   0.00000000000000E+00   2.03342492852868E-06
      3.27412199098710E-07   2.36083712762739E-06   5.32247039443697E-30   0.00000000000000E+00   0.00000000000000E+00
      0.00000000000000E+00   0.00000000000000E+00  -4.80782794106019E-13  -2.36083664684459E-06  -2.36083712762738E-06
      5.80633133938579E-31
      5.30000000000000E-01
      7.95000000000000E+00   7.95000000000000E+00   0.00000000000000E+00   0.00000000000000E+00   3.84400665780344E-06
      5.53750354608558E-07   4.39775701241200E-06  -5.71923636929500E-28   0.00000000000000E+00   0.00000000000000E+00
      0.00000000000000E+00   0.00000000000000E+00  -4.97694877767208E-13  -4.39775651471711E-06  -4.39775701241199E-06
     -1.93544377979526E-31
      5.40000000000000E-01
      8.10000000000000E+00   8.10000000000000E+00   0.00000000000000E+00   0.00000000000000E+00   7.02842578779283E-06
      9.06163345605546E-07   7.93458913339837E-06  -7.41468512039565E-28   0.00000000000000E+00   0.00000000000000E+00
      0.00000000000000E+00   0.00000000000000E+00  -5.27068160071219E-13  -7.93458860633019E-06  -7.93458913339835E-06
      3.87088755959053E-31
      5.50000000000000E-01
      8.25000000000000E+00   8.25000000000000E+00   0.00000000000000E+00   0.00000000000000E+00   1.23696594750046E-05
      1.42965769589507E-06   1.37993171708997E-05  -8.17241136018550E-28   0.00000000000000E+00   0.00000000000000E+00
      0.00000000000000E+00   0.00000000000000E+00  -5.77492154458762E-13  -1.37993165934076E-05  -1.37993171708997E-05
      5.80633133938579E-31
      5.60000000000000E-01
      8.40000000000000E+00   8.40000000000000E+00   0.00000000000000E+00   0.00000000000000E+00   2.08494564114673E-05
      2.16709208451862E-06   2.30165484959860E-05   1.14670205343420E-27   0.00000000000000E+00   0.00000000000000E+00
      0.00000000000000E+00   0.00000000000000E+00  -6.63455357290801E-13  -2.30165478325306E-05  -2.30165484959860E-05
      7.74177511918105E-31
      5.70000000000000E-01
      8.55000000000000E+00   8.55000000000000E+00   0.00000000000000E+00   0.00000000000000E+00   3.35240590543060E-05
      3.14854860088115E-06   3.66726076551872E-05   8.46490530140706E-28   0.00000000000000E+00   0.00000000000000E+00
      0.00000000000000E+00   0.00000000000000E+00  -8.09686193017619E-13  -3.66726068455009E-05  -3.66726076551871E-05
     -5.80633133938579E-31
      5.80000000000000E-01
      8.70000000000000E+00   8.70000000000000E+00   0.00000000000000E+00   0.00000000000000E+00   5.13429936395731E-05
      4.38325170593264E-06   5.57262453455058E-05  -9.93076203412949E-28   0.00000000000000E+00   0.00000000000000E+00
      0.00000000000000E+00   0.00000000000000E+00  -1.05793505926428E-12  -5.57262442875707E-05  -5.57262453455058E-05
     -1.93544377979526E-31
      5.90000000000000E-01
      8.85000000000000E+00   8.85000000000000E+00   0.00000000000000E+00   0.00000000000000E+00   7.50038938523054E-05
      5.85885326527040E-06   8.08627471175758E-05  -2.88598860614721E-28   0.00000000000000E+00   0.00000000000000E+00
      0.00000000000000E+00   0.00000000000000E+00  -1.47651854628836E-12  -8.08627456410573E-05  -8.08627471175758E-05
      1.93544377979526E-31
      6.00000000000000E-01
      9.00000000000001E+00   9.00000000000001E+00   0.00000000000000E+00   0.00000000000000E+00   1.04910967410165E-04
      7.54751731913582E-06   1.12458484729301E-04   5.40880177147401E-28   0.00000000000000E+00   0.00000000000000E+00
      0.00000000000000E+00   0.00000000000000E+00  -2.16966373217456E-12  -1.12458482559637E-04  -1.12458484729301E-04
     -3.87088755959053E-31
      6.10000000000000E-01
      9.15000000000001E+00   9.15000000000001E+00   0.00000000000000E+00   0.00000000000000E+00   1.41221635676053E-04
      9.41394654639732E-06   1.50635582222451E-04   1.20950720408855E-27   0.00000000000000E+00   0.00000000000000E+00
      0.00000000000000E+00   0.00000000000000E+00  -3.27985158850380E-12  -1.50635578942599E-04  -1.50635582222450E-04
     -3.87088755959053E-31
      6.20000000000000E-01
      9.30000000000000E+00   9.30000000000000E+00   0.00000000000000E+00   0.00000000000000E+00   1.83927011090368E-04
      1.14217141781144E-05   1.95348725268482E-04  -7.43645886291835E-28   0.00000000000000E+00   0.00000000000000E+00
      0.00000000000000E+00   0.00000000000000E+00  -4.97655660764982E-12  -1.95348720291925E-04  -1.95348725268482E-04
      3.87088755959053E-31
      6.30000000000000E-01
      9.45000000000000E+00   9.45000000000000E+00   0.00000000000000E+00   0.00000000000000E+00   2.32919998838772E-04
      1.35366934204493E-05   2.46456692259221E-04  -9.60463975723399E-28   0.00000000000000E+00   0.00000000000000E+00
      0.00000000000000E+00   0.00000000000000E+00  -7.42763831592519E-12  -2.46456684831583E-04  -2.46456692259221E-04
     -1.93544377979526E-31
      6.40000000000000E-01
      9.60000000000000E+00   9.60000000000000E+00   0.00000000000000E+00   0.00000000000000E+00   2.88037459432779E-04
      1.57283546424778E-05   3.03765814075257E-04   9.03876438211635E-28   0.00000000000000E+00   0.00000000000000E+00
      0.00000000000000E+00   0.00000000000000E+00  -1.07583902277903E-11  -3.03765803316867E-04  -3.03765814075257E-04
      0.00000000000000E+00
      6.50000000000000E-01
      9.75000000000001E+00   9.75000000000001E+00   0.00000000000000E+00   0.00000000000000E+00   3.49082586633352E-04
      1.79700435600359E-05   3.67052630193388E-04  -4.38329630029132E-28   0.00000000000000E+00   0.00000000000000E+00
      0.00000000000000E+00   0.00000000000000E+00  -1.50128666982994E-11  -3.67052615180522E-04  -3.67052630193388E-04
     -5.80633133938579E-31
      6.60000000000000E-01
      9.90000000000001E+00   9.90000000000001E+00   0.00000000000000E+00   0.00000000000000E+00   4.15836294587857E-04
      2.02388713628419E-05   4.36075165950699E-04   4.88796326587294E-28   0.00000000000000E+00   0.00000000000000E+00
      0.00000000000000E+00   0.00000000000000E+00  -2.01347037721054E-11  -4.36075145815995E-04  -4.36075165950699E-04
     -1.93544377979526E-31
      6.70000000000000E-01
      1.00500000000000E+01   1.00500000000000E+01   0.00000000000000E+00   0.00000000000000E+00   4.88064297526073E-04
      2.25154880909190E-05   5.10579785616992E-04  -1.61464397329420E-28   0.00000000000000E+00   0.00000000000000E+00
      0.00000000000000E+00   0.00000000000000E+00  -2.59791668723230E-11  -5.10579759637825E-04  -5.10579785616992E-04
      0.00000000000000E+00
      6.80000000000000E-01
      1.02000000000000E+01   1.02000000000000E+01   0.00000000000000E+00   0.00000000000000E+00   5.65522370332971E-04
      2.47838313936444E-05   5.90306201726616E-04  -1.86475169573824E-27   0.00000000000000E+00   0.00000000000000E+00
      0.00000000000000E+00   0.00000000000000E+00  -3.23528373927605E-11  -5.90306169373778E-04  -5.90306201726616E-04
      1.16126626787716E-30
      6.90000000000000E-01