DF-ISE text

Info {
  version   = 1.0
  type      = xyplot
  datasets  = [
    "time"
    "Cathode OuterVoltage" "Cathode InnerVoltage" "Cathode QuasiFermiPotential" "Cathode DisplacementCurrent" "Cathode eCurrent"
    "Cathode hCurrent" "Cathode TotalCurrent" "Cathode Charge" "Anode OuterVoltage" "Anode InnerVoltage"
    "Anode QuasiFermiPotential" "Anode DisplacementCurrent" "Anode eCurrent" "Anode hCurrent" "Anode TotalCurrent"
    "Anode Charge" ]
  functions = [
    Time
    OuterVoltage InnerVoltage QuasiFermiPotential DisplacementCurrent eCurrent
    hCurrent TotalCurrent Charge OuterVoltage InnerVoltage
    QuasiFermiPotential DisplacementCurrent eCurrent hCurrent TotalCurrent
    Charge ]
}

Data {
      0.00000000000000E+00
      0.00000000000000E+00   0.00000000000000E+00   0.00000000000000E+00   0.00000000000000E+00   1.82677125264002E-06
     -1.82677125264000E-06   1.07836304991307E-20  -3.42886126029321E-27   0.00000000000000E+00   0.00000000000000E+00
      0.00000000000000E+00   0.00000000000000E+00  -1.58472007365583E-27   1.58472007201855E-27  -1.63727632223980E-36
     -1.16126626787716E-30
      0.00000000000000E+00
      0.00000000000000E+00   0.00000000000000E+00   0.00000000000000E+00   0.00000000000000E+00   1.82690077017337E-06
     -1.82690240617788E-06  -1.63600451117228E-12  -2.09486225806273E-28   0.00000000000000E+00   0.00000000000000E+00
      0.00000000000000E+00   0.00000000000000E+00   1.78730941672477E-15   1.67075234882366E-24   1.78730941839552E-15
      3.87088755959053E-31
      0.00000000000000E+00
      0.00000000000000E+00   0.00000000000000E+00   0.00000000000000E+00   0.00000000000000E+00   3.72205470135584E-06
     -3.15501219237104E-06   5.67042508984805E-07  -1.10529088061362E-27   0.00000000000000E+00   0.00000000000000E+00
      0.00000000000000E+00   0.00000000000000E+00  -9.56227590467097E-11  -5.66946886114763E-07  -5.67042508873810E-07
     -7.74177511918105E-31
      1.00000000000000E-02
      1.50000000000000E-01   1.50000000000000E-01   0.00000000000000E+00   0.00000000000000E+00   3.72404419168729E-06
     -3.15439818349450E-06   5.69646008192788E-07   4.60529633253429E-28   0.00000000000000E+00   0.00000000000000E+00
      0.00000000000000E+00   0.00000000000000E+00  -9.65941933571689E-11  -5.69549413723438E-07  -5.69646007916795E-07
      0.00000000000000E+00
      2.00000000000000E-02
      3.00000000000000E-01   3.00000000000000E-01   0.00000000000000E+00   0.00000000000000E+00   3.72640359019894E-06
     -3.15380800889157E-06   5.72595581307366E-07  -6.16566896907839E-28   0.00000000000000E+00   0.00000000000000E+00
      0.00000000000000E+00   0.00000000000000E+00  -9.67952047308196E-11  -5.72498786259972E-07  -5.72595581464702E-07
     -1.16126626787716E-30
      3.00000000000000E-02
      4.50000000000000E-01   4.50000000000000E-01   0.00000000000000E+00   0.00000000000000E+00   3.73010762221481E-06
     -3.15323814194918E-06   5.76869480265634E-07   1.59085157613975E-27   0.00000000000000E+00   0.00000000000000E+00
      0.00000000000000E+00   0.00000000000000E+00  -9.70793083973090E-11  -5.76772400472903E-07  -5.76869479781300E-07
      0.00000000000000E+00
      4.00000000000000E-02
      6.00000000000000E-01   6.00000000000000E-01   0.00000000000000E+00   0.00000000000000E+00   3.73524108516679E-06
     -3.15270702684134E-06   5.82534058325451E-07   5.98012247230414E-28   0.00000000000000E+00   0.00000000000000E+00
      0.00000000000000E+00   0.00000000000000E+00  -9.74524101360164E-11  -5.82436605617320E-07  -5.82534058027456E-07
     -3.87088755959053E-31
      5.00000000000000E-02
      7.50000000000000E-01   7.50000000000000E-01   0.00000000000000E+00   0.00000000000000E+00   3.74121162351506E-06
     -3.15221945652417E-06   5.88992166990895E-07   1.00433740537800E-27   0.00000000000000E+00   0.00000000000000E+00
      0.00000000000000E+00   0.00000000000000E+00  -9.78615586041211E-11  -5.88894305067894E-07  -5.88992166626498E-07
     -1.54835502383621E-30
      6.00000000000000E-02
      9.00000000000000E-01   9.00000000000000E-01   0.00000000000000E+00   0.00000000000000E+00   3.74911314829925E-06
     -3.15175469228136E-06   5.97358456017885E-07   2.27768925786778E-27   0.00000000000000E+00   0.00000000000000E+00
      0.00000000000000E+00   0.00000000000000E+00  -9.84019246674803E-11  -5.97260054315116E-07  -5.97358456239783E-07
     -7.74177511918105E-31
      7.00000000000000E-02
      1.05000000000000E+00   1.05000000000000E+00   0.00000000000000E+00   0.00000000000000E+00   3.75977493751501E-06
     -3.15130038662542E-06   6.08474550889591E-07   4.42146839265142E-30   0.00000000000000E+00   0.00000000000000E+00
      0.00000000000000E+00   0.00000000000000E+00  -9.91342900972131E-11  -6.08375416139768E-07  -6.08474550429865E-07
     -3.87088755959053E-31
      8.00000000000000E-02
      1.20000000000000E+00   1.20000000000000E+00   0.00000000000000E+00   0.00000000000000E+00   3.77416911533335E-06
     -3.15085689012938E-06   6.23312225203970E-07   4.93810099369099E-28   0.00000000000000E+00   0.00000000000000E+00
      0.00000000000000E+00   0.00000000000000E+00  -1.00125606255381E-10  -6.23212099574948E-07  -6.23312225181204E-07
     -1.54835502383621E-30
      9.00000000000000E-02
      1.35000000000000E+00   1.35000000000000E+00   0.00000000000000E+00   0.00000000000000E+00   3.79263199418483E-06
     -3.15042998923495E-06   6.42202004949881E-07  -2.94679820842002E-29   0.00000000000000E+00   0.00000000000000E+00
      0.00000000000000E+00   0.00000000000000E+00  -1.01383259248791E-10  -6.42100621319438E-07  -6.42202004578687E-07
     -3.87088755959053E-31
      1.00000000000000E-01
      1.50000000000000E+00   1.50000000000000E+00   0.00000000000000E+00   0.00000000000000E+00   3.81430019803974E-06
     -3.15002558871982E-06   6.64274609319921E-07   1.61651657185360E-28   0.00000000000000E+00   0.00000000000000E+00
      0.00000000000000E+00   0.00000000000000E+00  -1.02814377880507E-10  -6.64171795093684E-07  -6.64274609471564E-07
     -7.74177511918105E-31
      1.10000000000000E-01
      1.65000000000000E+00   1.65000000000000E+00   0.00000000000000E+00   0.00000000000000E+00   3.84007153299698E-06
     -3.14964040702885E-06   6.90431125968130E-07  -2.06828770772687E-28   0.00000000000000E+00   0.00000000000000E+00
      0.00000000000000E+00   0.00000000000000E+00  -1.04470323537715E-10  -6.90326655598511E-07  -6.90431125922049E-07
     -3.87088755959053E-31
      1.20000000000000E-01
      1.80000000000000E+00   1.80000000000000E+00   0.00000000000000E+00   0.00000000000000E+00   3.87129944257746E-06
     -3.14926530882870E-06   7.22034133748758E-07  -2.10557902196062E-28   0.00000000000000E+00   0.00000000000000E+00
      0.00000000000000E+00   0.00000000000000E+00  -1.06424614085384E-10  -7.21927709218158E-07  -7.22034133832243E-07
     -3.87088755959053E-31
      1.30000000000000E-01
      1.95000000000000E+00   1.95000000000000E+00   0.00000000000000E+00   0.00000000000000E+00   3.90942005927304E-06
     -3.14889466024234E-06   7.60525399030691E-07   2.25840385530816E-27   0.00000000000000E+00   0.00000000000000E+00
      0.00000000000000E+00   0.00000000000000E+00  -1.08727099942814E-10  -7.60416671845074E-07  -7.60525398945016E-07
      3.87088755959053E-31
      1.40000000000000E-01
      2.10000000000000E+00   2.10000000000000E+00   0.00000000000000E+00   0.00000000000000E+00   3.95608273382102E-06
     -3.14852687989689E-06   8.07555853924131E-07  -4.77466798164590E-29   0.00000000000000E+00   0.00000000000000E+00
      0.00000000000000E+00   0.00000000000000E+00  -1.11413748839510E-10  -8.07444440361635E-07  -8.07555854110474E-07
      3.87088755959053E-31
      1.50000000000000E-01
      2.25000000000000E+00   2.25000000000000E+00   0.00000000000000E+00   0.00000000000000E+00   4.01327561326933E-06
     -3.14816221817094E-06   8.65113395098394E-07   1.54913869900925E-27   0.00000000000000E+00   0.00000000000000E+00
      0.00000000000000E+00   0.00000000000000E+00  -1.14532434768197E-10  -8.64998862667631E-07  -8.65113395102399E-07
     -1.16126626787716E-30
      1.60000000000000E-01
      2.40000000000000E+00   2.40000000000000E+00   0.00000000000000E+00   0.00000000000000E+00   4.08274412398422E-06
     -3.14780198710993E-06   9.34942136874292E-07   2.72212890813211E-28   0.00000000000000E+00   0.00000000000000E+00
      0.00000000000000E+00   0.00000000000000E+00  -1.18097291543714E-10  -9.34824039605486E-07  -9.34942136897029E-07
      3.87088755959053E-31
      1.70000000000000E-01
      2.55000000000000E+00   2.55000000000000E+00   0.00000000000000E+00   0.00000000000000E+00   4.16680189757169E-06
     -3.14744667898256E-06   1.01935521858913E-06  -7.75208173532482E-28   0.00000000000000E+00   0.00000000000000E+00
      0.00000000000000E+00   0.00000000000000E+00  -1.22108488430504E-10  -1.01923311017000E-06  -1.01935521865843E-06
     -3.87088755959053E-31
      1.80000000000000E-01
      2.70000000000000E+00   2.70000000000000E+00   0.00000000000000E+00   0.00000000000000E+00   4.27064696501307E-06
     -3.14709197962488E-06   1.12355498538819E-06  -3.16010906203343E-28   0.00000000000000E+00   0.00000000000000E+00
      0.00000000000000E+00   0.00000000000000E+00  -1.26631052792001E-10  -1.12342835443093E-06  -1.12355498548372E-06
     -1.16126626787716E-30
      1.90000000000000E-01
      2.85000000000000E+00   2.85000000000000E+00   0.00000000000000E+00   0.00000000000000E+00   4.40355197597333E-06
     -3.14672814957766E-06   1.25682382639567E-06  -5.72498127297536E-28   0.00000000000000E+00   0.00000000000000E+00
      0.00000000000000E+00   0.00000000000000E+00  -1.31766171309641E-10  -1.25669206017866E-06  -1.25682382634997E-06
     -3.87088755959053E-31
      2.00000000000000E-01
      3.00000000000000E+00   3.00000000000000E+00   0.00000000000000E+00   0.00000000000000E+00   4.58214754859863E-06
     -3.14634157752023E-06   1.43580597107840E-06  -1.52234466292249E-27   0.00000000000000E+00   0.00000000000000E+00
      0.00000000000000E+00   0.00000000000000E+00  -1.37641695736538E-10  -1.43566832926371E-06  -1.43580597095945E-06
      1.16126626787716E-30
      2.10000000000000E-01
      3.15000000000000E+00   3.15000000000000E+00   0.00000000000000E+00   0.00000000000000E+00   4.84041462855816E-06
     -3.14590757216352E-06   1.69450705639464E-06  -4.17487839597961E-28   0.00000000000000E+00   0.00000000000000E+00
      0.00000000000000E+00   0.00000000000000E+00  -1.44439615767289E-10  -1.69436261681901E-06  -1.69450705643478E-06
     -3.87088755959053E-31
      2.20000000000000E-01
      3.30000000000000E+00   3.30000000000000E+00   0.00000000000000E+00   0.00000000000000E+00   5.26508670105622E-06
     -3.14536744074663E-06   2.11971926030958E-06  -3.86606312575466E-29   0.00000000000000E+00   0.00000000000000E+00
      0.00000000000000E+00   0.00000000000000E+00  -1.52452005462564E-10  -2.11956680831038E-06  -2.11971926031584E-06
     -3.87088755959053E-31
      2.30000000000000E-01
      3.45000000000000E+00   3.45000000000000E+00   0.00000000000000E+00   0.00000000000000E+00   6.17541403059386E-06
     -3.14451101850849E-06   3.03090301208537E-06   3.64306276771047E-28   0.00000000000000E+00   0.00000000000000E+00
      0.00000000000000E+00   0.00000000000000E+00  -1.61993610494781E-10  -3.03074101847172E-06  -3.03090301208221E-06
      3.87088755959053E-31
      2.35000000000000E-01
      3.52500000000000E+00   3.52500000000000E+00   0.00000000000000E+00   0.00000000000000E+00   7.24707013133940E-06
     -3.14367663510193E-06   4.10339349623746E-06   2.60612168726314E-27   0.00000000000000E+00   0.00000000000000E+00
      0.00000000000000E+00   0.00000000000000E+00  -1.66831531987067E-10  -4.10322666468756E-06  -4.10339349621955E-06
     -3.87088755959053E-31
      2.37083333333333E-01
      3.55625000000000E+00   3.55625000000000E+00   0.00000000000000E+00   0.00000000000000E+00   8.04481597445943E-06
     -3.14309848446701E-06   4.90171748999242E-06  -3.64264931231317E-28   0.00000000000000E+00   0.00000000000000E+00
      0.00000000000000E+00   0.00000000000000E+00  -1.68311411735754E-10  -4.90154917856863E-06  -4.90171748998037E-06
      7.74177511918105E-31
      2.38958333333333E-01
      3.58437500000000E+00   3.58437500000000E+00   0.00000000000000E+00   0.00000000000000E+00   9.13692449712332E-06
     -3.14233439132962E-06   5.99459010579370E-06  -7.74704324972327E-28   0.00000000000000E+00   0.00000000000000E+00
      0.00000000000000E+00   0.00000000000000E+00  -1.68821814216512E-10  -5.99442128398386E-06  -5.99459010579808E-06
     -3.87088755959053E-31
      2.40645833333333E-01
      3.60968750000000E+00   3.60968750000000E+00   0.00000000000000E+00   0.00000000000000E+00   1.06578728388297E-05
     -3.14130090998172E-06   7.51657192884794E-06   2.46149706837930E-27   0.00000000000000E+00   0.00000000000000E+00
      0.00000000000000E+00   0.00000000000000E+00  -1.68013910642928E-10  -7.51640391493185E-06  -7.51657192884249E-06
     -3.87088755959053E-31
      2.42164583333333E-01
      3.63246875000000E+00   3.63246875000000E+00   0.00000000000000E+00   0.00000000000000E+00   1.27858068930490E-05
     -3.13989208101973E-06   9.64591481202924E-06  -2.01818211129969E-27   0.00000000000000E+00   0.00000000000000E+00
      0.00000000000000E+00   0.00000000000000E+00  -1.65662413365236E-10  -9.64574914956408E-06  -9.64591481197745E-06
     -3.87088755959053E-31
      2.43531458333333E-01
      3.65297187500000E+00   3.65297187500000E+00   0.00000000000000E+00   0.00000000000000E+00   1.57199033641816E-05
     -3.13800012335393E-06   1.25819032408277E-05   1.56920565039987E-27   0.00000000000000E+00   0.00000000000000E+00
      0.00000000000000E+00   0.00000000000000E+00  -1.62026386878348E-10  -1.25817412144670E-05  -1.25819032408539E-05
      7.74177511918105E-31
      2.44761645833333E-01
      3.67142468750000E+00   3.67142468750000E+00   0.00000000000000E+00   0.00000000000000E+00   1.96182984980707E-05
     -3.13556014654628E-06   1.64827383515244E-05  -2.35193247489313E-27   0.00000000000000E+00   0.00000000000000E+00
      0.00000000000000E+00   0.00000000000000E+00  -1.58314979722327E-10  -1.64825800366059E-05  -1.64827383515856E-05
      0.00000000000000E+00
      2.46975983333333E-01
      3.70463975000000E+00   3.70463975000000E+00   0.00000000000000E+00   0.00000000000000E+00   3.10305907096220E-05
     -3.12882872995896E-06   2.79017619796631E-05  -2.77546937958773E-28   0.00000000000000E+00   0.00000000000000E+00
      0.00000000000000E+00   0.00000000000000E+00  -1.61355666133641E-10  -2.79016006239574E-05  -2.79017619796236E-05
     -5.80633133938579E-31
      2.48895075833333E-01
      3.73342613750000E+00   3.73342613750000E+00   0.00000000000000E+00   0.00000000000000E+00   4.65637518800657E-05
     -3.12052545247000E-06   4.34432264275957E-05   6.85280065303293E-28   0.00000000000000E+00   0.00000000000000E+00
      0.00000000000000E+00   0.00000000000000E+00  -2.02913177380317E-10  -4.34430235143420E-05  -4.34432264275194E-05
      0.00000000000000E+00
      2.52221502833333E-01
      3.78332254250000E+00   3.78332254250000E+00   0.00000000000000E+00   0.00000000000000E+00   8.55306827713578E-05
     -3.10322733603302E-06   8.24274554353247E-05   8.20024943021549E-28   0.00000000000000E+00   0.00000000000000E+00
      0.00000000000000E+00   0.00000000000000E+00  -4.83629351176023E-10  -8.24269718059820E-05  -8.24274554353331E-05
     -1.93544377979526E-31
      2.57987309633333E-01
      3.86980964450000E+00   3.86980964450000E+00   0.00000000000000E+00   0.00000000000000E+00   1.79390187645799E-04
     -3.07573738615635E-06   1.76314450259643E-04   6.90722272380787E-28   0.00000000000000E+00   0.00000000000000E+00
      0.00000000000000E+00   0.00000000000000E+00  -2.04789163946903E-09  -1.76312402368026E-04  -1.76314450259666E-04
     -1.93544377979526E-31
      2.67981374753333E-01
      4.01972062130000E+00   4.01972062130000E+00   0.00000000000000E+00   0.00000000000000E+00   3.86987581706370E-04
     -3.05160720619622E-06   3.83935974500174E-04  -2.75419839882814E-28   0.00000000000000E+00   0.00000000000000E+00
      0.00000000000000E+00   0.00000000000000E+00  -9.83231657730218E-09  -3.83926142183664E-04  -3.83935974500241E-04
      1.93544377979526E-31
      2.77981374753333E-01
      4.16972062130000E+00   4.16972062130000E+00   0.00000000000000E+00   0.00000000000000E+00   6.24980909013622E-04
     -3.05215317196064E-06   6.21928755841661E-04  -6.90581650293661E-28   0.00000000000000E+00   0.00000000000000E+00
      0.00000000000000E+00   0.00000000000000E+00  -2.41643657533082E-08  -6.21904591475817E-04  -6.21928755841570E-04
      0.00000000000000E+00
      2.87981374753333E-01
      4.31972062130000E+00   4.31972062130000E+00   0.00000000000000E+00   0.00000000000000E+00   8.80186938140386E-04
     -3.06866048530625E-06   8.77118277655079E-04  -4.09636628741622E-28   0.00000000000000E+00   0.00000000000000E+00
      0.00000000000000E+00   0.00000000000000E+00  -4.05387914549965E-08  -8.77077738863617E-04  -8.77118277655072E-04
      5.80633133938579E-31
      2.97981374753333E-01
      4.46972062130000E+00   4.46972062130000E+00   0.00000000000000E+00   0.00000000000000E+00   1.14680052570938E-03
     -3.09594436191020E-06   1.14370458134747E-03  -5.18995250561866E-28   0.00000000000000E+00   0.00000000000000E+00
      0.00000000000000E+00   0.00000000000000E+00  -5.61168721047459E-08  -1.14364846447540E-03  -1.14370458134751E-03
      0.00000000000000E+00
      3.07981374753333E-01
      4.61972062130000E+00   4.61972062130000E+00   0.00000000000000E+00   0.00000000000000E+00   1.42176189302269E-03
     -3.13106390741061E-06   1.41863082911528E-03  -1.00967735902923E-27   0.00000000000000E+00   0.00000000000000E+00
      0.00000000000000E+00   0.00000000000000E+00  -7.07235736272913E-08  -1.41856010554156E-03  -1.41863082911519E-03
      1.93544377979526E-31
      3.17981374753333E-01
      4.76972062130000E+00   4.76972062130000E+00   0.00000000000000E+00   0.00000000000000E+00   1.70325495303219E-03
     -3.17222498636259E-06   1.70008272804582E-03  -3.74736598769690E-28   0.00000000000000E+00   0.00000000000000E+00
      0.00000000000000E+00   0.00000000000000E+00  -8.47424216304612E-08  -1.69999798562423E-03  -1.70008272804586E-03
      1.93544377979526E-31
      3.27981374753333E-01
      4.91972062130000E+00   4.91972062130000E+00   0.00000000000000E+00   0.00000000000000E+00   1.99010416407845E-03
     -3.21824641095739E-06   1.98688591766749E-03   2.06233730490104E-27   0.00000000000000E+00   0.00000000000000E+00
      0.00000000000000E+00   0.00000000000000E+00  -9.83963136375186E-08  -1.98678752135389E-03  -1.98688591766753E-03
      0.00000000000000E+00
      3.37981374753333E-01
      5.06972062130000E+00   5.06972062130000E+00   0.00000000000000E+00   0.00000000000000E+00   2.28149863729293E-03
     -3.26828911493971E-06   2.27823034817799E-03   8.60188047566843E-28   0.00000000000000E+00   0.00000000000000E+00
      0.00000000000000E+00   0.00000000000000E+00  -1.11744396419434E-07  -2.27811860378152E-03  -2.27823034817794E-03
      1.93544377979526E-31
      3.47981374753333E-01
      5.21972062130000E+00   5.21972062130000E+00   0.00000000000000E+00   0.00000000000000E+00   2.57685083839707E-03
     -3.32171657264552E-06   2.57352912182443E-03   9.02553924338813E-28   0.00000000000000E+00   0.00000000000000E+00
      0.00000000000000E+00   0.00000000000000E+00  -1.24774619142563E-07  -2.57340434720531E-03  -2.57352912182446E-03
      3.87088755959053E-31
      3.57981374753333E-01
      5.36972062130000E+00   5.36972062130000E+00   0.00000000000000E+00   0.00000000000000E+00   2.87571774499979E-03
     -3.37801808620603E-06   2.87233972691358E-03   1.82453538538982E-27   0.00000000000000E+00   0.00000000000000E+00
      0.00000000000000E+00   0.00000000000000E+00  -1.37460691141220E-07  -2.87220226622251E-03  -2.87233972691365E-03
      1.93544377979526E-31
      3.67981374753333E-01
      5.51972062130000E+00   5.51972062130000E+00   0.00000000000000E+00   0.00000000000000E+00   3.17775395416422E-03
     -3.43676483173916E-06   3.17431718933248E-03   5.39661617774470E-28   0.00000000000000E+00   0.00000000000000E+00
      0.00000000000000E+00   0.00000000000000E+00  -1.49784416912619E-07  -3.17416740491557E-03  -3.17431718933248E-03
      0.00000000000000E+00
      3.77981374753333E-01
      5.66972062130000E+00   5.66972062130000E+00   0.00000000000000E+00   0.00000000000000E+00   3.48268248396301E-03
     -3.49758395487075E-06   3.47918490000814E-03   1.49876901090031E-27   0.00000000000000E+00   0.00000000000000E+00
      0.00000000000000E+00   0.00000000000000E+00  -1.61740026851215E-07  -3.47902315998126E-03  -3.47918490000811E-03
     -3.87088755959053E-31
      3.87981374753333E-01
      5.81972062130000E+00   5.81972062130000E+00   0.00000000000000E+00   0.00000000000000E+00   3.79027593578669E-03
     -3.56014307883330E-06   3.78671579270785E-03   1.78269011984111E-27   0.00000000000000E+00   0.00000000000000E+00
      0.00000000000000E+00   0.00000000000000E+00  -1.73331737290772E-07  -3.78654246097058E-03  -3.78671579270787E-03
      0.00000000000000E+00
      3.97981374753334E-01
      5.96972062130000E+00   5.96972062130000E+00   0.00000000000000E+00   0.00000000000000E+00   4.10034396162684E-03
     -3.62414102790750E-06   4.09671982059893E-03   7.21358584913652E-28   0.00000000000000E+00   0.00000000000000E+00
      0.00000000000000E+00   0.00000000000000E+00  -1.84569652829563E-07  -4.09653525094612E-03  -4.09671982059894E-03
     -1.93544377979526E-31
      4.07981374753334E-01
      6.11972062130000E+00   6.11972062130000E+00   0.00000000000000E+00   0.00000000000000E+00   4.41272468085906E-03
     -3.68930233452163E-06   4.40903537852454E-03  -8.20071769798546E-28   0.00000000000000E+00   0.00000000000000E+00
      0.00000000000000E+00   0.00000000000000E+00  -1.95463036063485E-07  -4.40883991548855E-03  -4.40903537852461E-03
      0.00000000000000E+00
      4.17981374753334E-01
      6.26972062130000E+00   6.26972062130000E+00   0.00000000000000E+00   0.00000000000000E+00   4.72727863330016E-03
     -3.75537405849342E-06   4.72352325924166E-03  -1.87000575698394E-27   0.00000000000000E+00   0.00000000000000E+00
      0.00000000000000E+00   0.00000000000000E+00  -2.05998297613771E-07  -4.72331726094394E-03  -4.72352325924155E-03
      0.00000000000000E+00
      4.27981374753334E-01
      6.41972062130000E+00   6.41972062130000E+00   0.00000000000000E+00   0.00000000000000E+00   5.04388440049093E-03
     -3.82212399443149E-06   5.04006227649650E-03   5.87106817728233E-28   0.00000000000000E+00   0.00000000000000E+00
      0.00000000000000E+00   0.00000000000000E+00  -2.16070233828414E-07  -5.03984620626274E-03  -5.04006227649656E-03
      1.93544377979526E-31
      4.37981374753334E-01
      6.56972062130000E+00   6.56972062130000E+00   0.00000000000000E+00   0.00000000000000E+00   5.36243535191796E-03
     -3.88933967522982E-06   5.35854601224273E-03  -2.04244973648731E-28   0.00000000000000E+00   0.00000000000000E+00
      0.00000000000000E+00   0.00000000000000E+00  -2.25321327959029E-07  -5.35832069091481E-03  -5.35854601224277E-03
     -2.90316566969289E-31
      4.47981374753334E-01
      6.71972062130000E+00   6.71972062130000E+00   0.00000000000000E+00   0.00000000000000E+00   5.68283717055761E-03
     -3.95682778611938E-06   5.67888034277149E-03  -2.30403405989912E-27   0.00000000000000E+00   0.00000000000000E+00
      0.00000000000000E+00   0.00000000000000E+00  -2.32850773170117E-07  -5.67864749199835E-03  -5.67888034277152E-03
     -2.90316566969289E-31
      4.57981374753334E-01
      6.86972062130000E+00   6.86972062130000E+00   0.00000000000000E+00   0.00000000000000E+00   6.00500593503964E-03
     -4.02441374066044E-06   6.00098152129897E-03   1.16027860562410E-27   0.00000000000000E+00   0.00000000000000E+00
      0.00000000000000E+00   0.00000000000000E+00  -2.36782452968752E-07  -6.00074473884609E-03  -6.00098152129906E-03
     -9.67721889897631E-32
      4.67981374753334E-01
      7.01972062130000E+00   7.01972062130000E+00   0.00000000000000E+00   0.00000000000000E+00   6.32886661371830E-03
     -4.09194126368866E-06   6.32477467245461E-03  -7.89275072010564E-28   0.00000000000000E+00   0.00000000000000E+00
      0.00000000000000E+00   0.00000000000000E+00  -2.33715301617582E-07  -6.32454095715297E-03  -6.32477467245459E-03
     -9.67721889897631E-32
      4.77981374753334E-01
      7.16972062130000E+00   7.16972062130000E+00   0.00000000000000E+00   0.00000000000000E+00   6.65435187658503E-03
     -4.15927189340815E-06   6.65019260469162E-03   1.16371328592653E-27   0.00000000000000E+00   0.00000000000000E+00
      0.00000000000000E+00   0.00000000000000E+00  -2.18105344802036E-07  -6.64997449934680E-03  -6.65019260469160E-03
      9.67721889897631E-32
      4.87981374753334E-01
      7.31972062130000E+00   7.31972062130000E+00   0.00000000000000E+00   0.00000000000000E+00   6.98140116447288E-03
     -4.22628435740303E-06   6.97717488011547E-03  -1.40841641392122E-27   0.00000000000000E+00   0.00000000000000E+00
      0.00000000000000E+00   0.00000000000000E+00  -1.81639437629411E-07  -6.97699324067790E-03  -6.97717488011553E-03
      9.67721889897631E-32
      4.97981374753334E-01
      7.46972062130000E+00   7.46972062130000E+00   0.00000000000000E+00   0.00000000000000E+00   7.30995997737811E-03
     -4.29287381205389E-06   7.30566710356606E-03   9.00803708577006E-28   0.00000000000000E+00   0.00000000000000E+00
      0.00000000000000E+00   0.00000000000000E+00  -1.12657335635743E-07  -7.30555444623043E-03  -7.30566710356607E-03
     -9.67721889897631E-32
      5.07981374753334E-01
      7.61972062130000E+00   7.61972062130000E+00   0.00000000000000E+00   0.00000000000000E+00   7.63997935851362E-03
     -4.35895095566709E-06   7.63562040755796E-03  -4.27345325050158E-28   0.00000000000000E+00   0.00000000000000E+00
      0.00000000000000E+00   0.00000000000000E+00   4.33377921126152E-09  -7.63562474133717E-03  -7.63562040755796E-03
      0.00000000000000E+00
      5.17981374753334E-01
      7.76972062130000E+00   7.76972062130000E+00   0.00000000000000E+00   0.00000000000000E+00   7.97141556006246E-03
     -4.42444103757184E-06   7.96699111902488E-03  -2.01987486857429E-27   0.00000000000000E+00   0.00000000000000E+00
      0.00000000000000E+00   0.00000000000000E+00   1.89024487620534E-07  -7.96718014351247E-03  -7.96699111902485E-03
     -9.67721889897631E-32
      5.27981374753334E-01
      7.91972062130000E+00   7.91972062130000E+00   0.00000000000000E+00   0.00000000000000E+00   8.30422988198232E-03
     -4.48928279393011E-06   8.29974059918839E-03  -3.56369350704342E-28   0.00000000000000E+00   0.00000000000000E+00
      0.00000000000000E+00   0.00000000000000E+00   4.65536244982220E-07  -8.30020613543338E-03  -8.29974059918840E-03
     -1.93544377979526E-31
      5.37981374753334E-01
      8.06972062130000E+00   8.06972062130000E+00   0.00000000000000E+00   0.00000000000000E+00   8.63838867769331E-03
     -4.55342734128437E-06   8.63383525035202E-03   1.15268647773272E-28   0.00000000000000E+00   0.00000000000000E+00
      0.00000000000000E+00   0.00000000000000E+00   8.62524130328146E-07  -8.63469777448235E-03  -8.63383525035202E-03
      9.67721889897631E-32
      5.47981374753334E-01
      8.21972062130000E+00   8.21972062130000E+00   0.00000000000000E+00   0.00000000000000E+00   8.97386352074591E-03
     -4.61683705955861E-06   8.96924668368635E-03  -8.87335387197106E-28   0.00000000000000E+00   0.00000000000000E+00
      0.00000000000000E+00   0.00000000000000E+00   1.41316099519483E-06  -8.97065984468151E-03  -8.96924668368631E-03
      4.83860944948816E-31
      5.57981374753334E-01
      8.36972062130000E+00   8.36972062130000E+00   0.00000000000000E+00   0.00000000000000E+00   9.31063152522413E-03
     -4.67948449147113E-06   9.30595204073266E-03  -1.86037360472327E-27   0.00000000000000E+00   0.00000000000000E+00
      0.00000000000000E+00   0.00000000000000E+00   2.15502136997980E-06  -9.30810706210251E-03  -9.30595204073253E-03
     -3.87088755959053E-31
      5.67981374753334E-01
      8.51972062130000E+00   8.51972062130000E+00   0.00000000000000E+00   0.00000000000000E+00   9.64867581051879E-03
     -4.74135128136130E-06   9.64393445923743E-03   2.79234733768599E-28   0.00000000000000E+00   0.00000000000000E+00
      0.00000000000000E+00   0.00000000000000E+00   3.12988709568874E-06  -9.64706434633319E-03  -9.64393445923750E-03
      0.00000000000000E+00
      5.77981374753334E-01
      8.66972062130001E+00   8.66972062130001E+00   0.00000000000000E+00   0.00000000000000E+00   9.98798609899081E-03
     -4.80242717147849E-06   9.98318367181933E-03  -2.16676975923166E-27   0.00000000000000E+00   0.00000000000000E+00
      0.00000000000000E+00   0.00000000000000E+00   4.38349792429255E-06  -9.98756716974352E-03  -9.98318367181922E-03
     -1.93544377979526E-31
      5.87981374753334E-01
      8.81972062130001E+00   8.81972062130001E+00   0.00000000000000E+00   0.00000000000000E+00   1.03285594332690E-02
     -4.86270906836181E-06   1.03236967242007E-02  -2.78859174511719E-28   0.00000000000000E+00   0.00000000000000E+00
      0.00000000000000E+00   0.00000000000000E+00   5.96526992550015E-06  -1.03296619941262E-02  -1.03236967242007E-02
     -2.90316566969289E-31
      5.97981374753334E-01
      8.96972062130001E+00   8.96972062130001E+00   0.00000000000000E+00   0.00000000000000E+00   1.06704009987586E-02
     -4.92220018688186E-06   1.06654787985717E-02  -3.55408055092620E-28   0.00000000000000E+00   0.00000000000000E+00
      0.00000000000000E+00   0.00000000000000E+00   7.92800302772140E-06  -1.06734068015995E-02  -1.06654787985717E-02
     -1.93544377979526E-31
      6.07981374753334E-01