DF-ISE text

Info {
  version   = 1.0
  type      = xyplot
  datasets  = [
    "time"
    "Cathode OuterVoltage" "Cathode InnerVoltage" "Cathode QuasiFermiPotential" "Cathode DisplacementCurrent" "Cathode eCurrent"
    "Cathode hCurrent" "Cathode TotalCurrent" "Cathode Charge" "Anode OuterVoltage" "Anode InnerVoltage"
    "Anode QuasiFermiPotential" "Anode DisplacementCurrent" "Anode eCurrent" "Anode hCurrent" "Anode TotalCurrent"
    "Anode Charge" ]
  functions = [
    Time
    OuterVoltage InnerVoltage QuasiFermiPotential DisplacementCurrent eCurrent
    hCurrent TotalCurrent Charge OuterVoltage InnerVoltage
    QuasiFermiPotential DisplacementCurrent eCurrent hCurrent TotalCurrent
    Charge ]
}

Data {
      0.00000000000000E+00
      0.00000000000000E+00   0.00000000000000E+00   0.00000000000000E+00   0.00000000000000E+00   1.82677125264001E-06
     -1.82677125263999E-06   1.99082409214720E-20  -1.97415265539117E-29   0.00000000000000E+00   0.00000000000000E+00
      0.00000000000000E+00   0.00000000000000E+00  -1.64806948719939E-22  -1.82302112145624E-19  -1.82466919094344E-19
      3.87088755959053E-31
      0.00000000000000E+00
      0.00000000000000E+00   0.00000000000000E+00   0.00000000000000E+00   0.00000000000000E+00   2.13637029764265E-07
     -5.63774285600017E-07  -3.50137255835753E-07   1.48448537910297E-28   0.00000000000000E+00   0.00000000000000E+00
      0.00000000000000E+00   0.00000000000000E+00   3.87887641899879E-13  -1.08352474624480E-19   3.87887533547405E-13
      5.80633133938579E-31
      0.00000000000000E+00
      0.00000000000000E+00   0.00000000000000E+00   0.00000000000000E+00   0.00000000000000E+00   6.05895555895459E-08
     -2.92923740742481E-07  -2.32334185152935E-07   1.25803845686692E-29   0.00000000000000E+00   0.00000000000000E+00
      0.00000000000000E+00   0.00000000000000E+00   6.19595805477348E-12   2.32327989194855E-07   2.32334185152910E-07
      0.00000000000000E+00
      5.00000000000000E-03
      7.50000000000000E-02   7.50000000000000E-02   0.00000000000000E+00   0.00000000000000E+00   1.26444158822276E-07
     -4.95657648625886E-08   7.68783939596870E-08   2.49865791971568E-28   0.00000000000000E+00   0.00000000000000E+00
      0.00000000000000E+00   0.00000000000000E+00  -9.99752210828946E-13  -7.68773942074563E-08  -7.68783939596672E-08
      0.00000000000000E+00
      1.20000000000000E-02
      1.80000000000000E-01   1.80000000000000E-01   0.00000000000000E+00   0.00000000000000E+00   1.75190106461997E-07
      9.63688464633463E-08   2.71558952925343E-07   1.01417254061272E-28   0.00000000000000E+00   0.00000000000000E+00
      0.00000000000000E+00   0.00000000000000E+00  -3.55956042008338E-12  -2.71555393364933E-07  -2.71558952925353E-07
      1.93544377979526E-31
      2.20000000000000E-02
      3.30000000000000E-01   3.30000000000000E-01   0.00000000000000E+00   0.00000000000000E+00   2.25313192151351E-07
      2.28273670218050E-07   4.53586862369402E-07  -8.26434493972577E-29   0.00000000000000E+00   0.00000000000000E+00
      0.00000000000000E+00   0.00000000000000E+00  -5.94135977910435E-12  -4.53580921009606E-07  -4.53586862369385E-07
     -1.93544377979526E-31
      3.20000000000000E-02
      4.80000000000000E-01   4.80000000000000E-01   0.00000000000000E+00   0.00000000000000E+00   2.74099277232593E-07
      3.43914476541223E-07   6.18013753773816E-07  -1.07610674156617E-28   0.00000000000000E+00   0.00000000000000E+00
      0.00000000000000E+00   0.00000000000000E+00  -8.09262622206168E-12  -6.18005661147583E-07  -6.18013753773805E-07
     -3.87088755959053E-31
      4.20000000000000E-02
      6.30000000000000E-01   6.30000000000000E-01   0.00000000000000E+00   0.00000000000000E+00   3.26996735920100E-07
      4.58267417206217E-07   7.85264153126317E-07  -9.94818102814765E-29   0.00000000000000E+00   0.00000000000000E+00
      0.00000000000000E+00   0.00000000000000E+00  -1.02808627357892E-11  -7.85253872263574E-07  -7.85264153126309E-07
     -1.93544377979526E-31
      5.20000000000000E-02
      7.80000000000000E-01   7.80000000000000E-01   0.00000000000000E+00   0.00000000000000E+00   3.70613439466106E-07
      5.45540558148115E-07   9.16153997614221E-07  -6.54179997570799E-29   0.00000000000000E+00   0.00000000000000E+00
      0.00000000000000E+00   0.00000000000000E+00  -1.19934070873105E-11  -9.16142004207155E-07  -9.16153997614243E-07
     -5.80633133938579E-31
      6.20000000000000E-02
      9.30000000000000E-01   9.30000000000000E-01   0.00000000000000E+00   0.00000000000000E+00   4.15604037431043E-07
      6.29981565404055E-07   1.04558560283510E-06  -1.12255739228125E-29   0.00000000000000E+00   0.00000000000000E+00
      0.00000000000000E+00   0.00000000000000E+00  -1.36868102872620E-11  -1.04557191602481E-06  -1.04558560283509E-06
      1.93544377979526E-31
      7.20000000000000E-02
      1.08000000000000E+00   1.08000000000000E+00   0.00000000000000E+00   0.00000000000000E+00   4.62407700218095E-07
      7.12648454533417E-07   1.17505615475151E-06  -3.94830531078234E-29   0.00000000000000E+00   0.00000000000000E+00
      0.00000000000000E+00   0.00000000000000E+00  -1.53805024276569E-11  -1.17504077424909E-06  -1.17505615475152E-06
     -1.93544377979526E-31
      8.20000000000000E-02
      1.23000000000000E+00   1.23000000000000E+00   0.00000000000000E+00   0.00000000000000E+00   5.06065323760854E-07
      7.85619240269616E-07   1.29168456403047E-06  -1.31029543892139E-28   0.00000000000000E+00   0.00000000000000E+00
      0.00000000000000E+00   0.00000000000000E+00  -1.69057800526962E-11  -1.29166765825042E-06  -1.29168456403048E-06
      1.93544377979526E-31
      9.20000000000000E-02
      1.38000000000000E+00   1.38000000000000E+00   0.00000000000000E+00   0.00000000000000E+00   5.54705874817940E-07
      8.62773580655556E-07   1.41747945547350E-06  -1.35481064585668E-30   0.00000000000000E+00   0.00000000000000E+00
      0.00000000000000E+00   0.00000000000000E+00  -1.85508106173512E-11  -1.41746090466290E-06  -1.41747945547351E-06
     -9.67721889897631E-31
      1.02000000000000E-01
      1.53000000000000E+00   1.53000000000000E+00   0.00000000000000E+00   0.00000000000000E+00   6.24936222234326E-07
      9.67423786846345E-07   1.59236000908067E-06   6.96759760726295E-30   0.00000000000000E+00   0.00000000000000E+00
      0.00000000000000E+00   0.00000000000000E+00  -2.08380516762268E-11  -1.59233917102899E-06  -1.59236000908066E-06
     -1.93544377979526E-31
      1.12000000000000E-01
      1.68000000000000E+00   1.68000000000000E+00   0.00000000000000E+00   0.00000000000000E+00   6.94826633717772E-07
      1.06477665913276E-06   1.75960329285053E-06  -1.01223709683292E-28   0.00000000000000E+00   0.00000000000000E+00
      0.00000000000000E+00   0.00000000000000E+00  -2.30251317403273E-11  -1.75958026771876E-06  -1.75960329285050E-06
      5.80633133938579E-31
      1.22000000000000E-01
      1.83000000000000E+00   1.83000000000000E+00   0.00000000000000E+00   0.00000000000000E+00   7.48056809065249E-07
      1.13502080274578E-06   1.88307761181103E-06   7.45145855221176E-29   0.00000000000000E+00   0.00000000000000E+00
      0.00000000000000E+00   0.00000000000000E+00  -2.46389826962977E-11  -1.88305297282836E-06  -1.88307761181105E-06
     -1.93544377979526E-31
      1.32000000000000E-01
      1.98000000000000E+00   1.98000000000000E+00   0.00000000000000E+00   0.00000000000000E+00   7.82253563797431E-07
      1.17861659446132E-06   1.96087015825875E-06  -7.25791417423224E-29   0.00000000000000E+00   0.00000000000000E+00
      0.00000000000000E+00   0.00000000000000E+00  -2.56542842646880E-11  -1.96084450397449E-06  -1.96087015825875E-06
      3.87088755959053E-31
      1.42000000000000E-01
      2.13000000000000E+00   2.13000000000000E+00   0.00000000000000E+00   0.00000000000000E+00   8.06524429820191E-07
      1.20892920143809E-06   2.01545363125828E-06   2.92252010749085E-29   0.00000000000000E+00   0.00000000000000E+00
      0.00000000000000E+00   0.00000000000000E+00  -2.63646612497433E-11  -2.01542726659704E-06  -2.01545363125829E-06
      1.93544377979526E-31
      1.52000000000000E-01
      2.28000000000000E+00   2.28000000000000E+00   0.00000000000000E+00   0.00000000000000E+00   8.29406752245976E-07
      1.23702798435528E-06   2.06643473660125E-06   5.26440708104311E-29   0.00000000000000E+00   0.00000000000000E+00
      0.00000000000000E+00   0.00000000000000E+00  -2.70257937232577E-11  -2.06640771080755E-06  -2.06643473660127E-06
     -3.87088755959053E-31
      1.62000000000000E-01
      2.43000000000000E+00   2.43000000000000E+00   0.00000000000000E+00   0.00000000000000E+00   8.55119849770652E-07
      1.26802426930302E-06   2.12314411907367E-06   1.00836620927333E-28   0.00000000000000E+00   0.00000000000000E+00
      0.00000000000000E+00   0.00000000000000E+00  -2.77599418050816E-11  -2.12311635913190E-06  -2.12314411907370E-06
      0.00000000000000E+00
      1.72000000000000E-01
      2.58000000000000E+00   2.58000000000000E+00   0.00000000000000E+00   0.00000000000000E+00   8.88117822549856E-07
      1.30690526716191E-06   2.19502308971176E-06  -6.29019228433460E-29   0.00000000000000E+00   0.00000000000000E+00
      0.00000000000000E+00   0.00000000000000E+00  -2.86922577655562E-11  -2.19499439745399E-06  -2.19502308971175E-06
     -3.87088755959053E-31
      1.82000000000000E-01
      2.73000000000000E+00   2.73000000000000E+00   0.00000000000000E+00   0.00000000000000E+00   9.38215755337993E-07
      1.36408777602155E-06   2.30230353135954E-06  -5.70955915039603E-29   0.00000000000000E+00   0.00000000000000E+00
      0.00000000000000E+00   0.00000000000000E+00  -3.00877121626625E-11  -2.30227344364739E-06  -2.30230353135955E-06
      1.93544377979526E-31
      1.92000000000000E-01
      2.88000000000000E+00   2.88000000000000E+00   0.00000000000000E+00   0.00000000000000E+00   1.01753008457025E-06
      1.45055787802277E-06   2.46808796259302E-06   6.90953429386909E-29   0.00000000000000E+00   0.00000000000000E+00
      0.00000000000000E+00   0.00000000000000E+00  -3.22483406577612E-11  -2.46805571425235E-06  -2.46808796259301E-06
      5.80633133938579E-31
      2.02000000000000E-01
      3.03000000000000E+00   3.03000000000000E+00   0.00000000000000E+00   0.00000000000000E+00   1.12389278233634E-06
      1.55978075499440E-06   2.68367353733074E-06   1.51351703579990E-28   0.00000000000000E+00   0.00000000000000E+00
      0.00000000000000E+00   0.00000000000000E+00  -3.50600817000889E-11  -2.68363847724909E-06  -2.68367353733079E-06
     -1.93544377979526E-31
      2.12000000000000E-01
      3.18000000000000E+00   3.18000000000000E+00   0.00000000000000E+00   0.00000000000000E+00   1.23600469451961E-06
      1.66781244830254E-06   2.90381714282215E-06  -1.51545247957969E-28   0.00000000000000E+00   0.00000000000000E+00
      0.00000000000000E+00   0.00000000000000E+00  -3.79303829625579E-11  -2.90377921243919E-06  -2.90381714282215E-06
     -7.74177511918105E-31
      2.22000000000000E-01
      3.33000000000000E+00   3.33000000000000E+00   0.00000000000000E+00   0.00000000000000E+00   1.33771224040395E-06
      1.76051019192871E-06   3.09822243233266E-06  -1.16320171165695E-28   0.00000000000000E+00   0.00000000000000E+00
      0.00000000000000E+00   0.00000000000000E+00  -4.04619844975714E-11  -3.09818197034818E-06  -3.09822243233268E-06
     -1.93544377979526E-31
      2.32000000000000E-01
      3.48000000000000E+00   3.48000000000000E+00   0.00000000000000E+00   0.00000000000000E+00   1.42386879448599E-06
      1.83574759936004E-06   3.25961639384603E-06   8.63207925788687E-29   0.00000000000000E+00   0.00000000000000E+00
      0.00000000000000E+00   0.00000000000000E+00  -4.25584914799014E-11  -3.25957383535456E-06  -3.25961639384604E-06
     -7.74177511918105E-31
      2.42000000000000E-01
      3.63000000000000E+00   3.63000000000000E+00   0.00000000000000E+00   0.00000000000000E+00   1.49793443101563E-06
      1.89844474889046E-06   3.39637917990609E-06   1.31223088270119E-28   0.00000000000000E+00   0.00000000000000E+00
      0.00000000000000E+00   0.00000000000000E+00  -4.43276759004062E-11  -3.39633485223020E-06  -3.39637917990610E-06
     -1.93544377979526E-31
      2.52000000000000E-01
      3.78000000000000E+00   3.78000000000000E+00   0.00000000000000E+00   0.00000000000000E+00   1.56793807871825E-06
      1.95621577728770E-06   3.52415385600594E-06  -6.77405322928342E-29   0.00000000000000E+00   0.00000000000000E+00
      0.00000000000000E+00   0.00000000000000E+00  -4.59731755102023E-11  -3.52410788283042E-06  -3.52415385600593E-06
      0.00000000000000E+00
      2.62000000000000E-01
      3.93000000000000E+00   3.93000000000000E+00   0.00000000000000E+00   0.00000000000000E+00   1.63965536411676E-06
      2.01395603536067E-06   3.65361139947743E-06   3.14122525460771E-28   0.00000000000000E+00   0.00000000000000E+00
      0.00000000000000E+00   0.00000000000000E+00  -4.76363307102673E-11  -3.65356376314672E-06  -3.65361139947743E-06
      0.00000000000000E+00
      2.72000000000000E-01
      4.08000000000000E+00   4.08000000000000E+00   0.00000000000000E+00   0.00000000000000E+00   1.71695742111864E-06
      2.07457271036147E-06   3.79153013148011E-06   2.78316815534559E-28   0.00000000000000E+00   0.00000000000000E+00
      0.00000000000000E+00   0.00000000000000E+00  -4.94055784392628E-11  -3.79148072590166E-06  -3.79153013148010E-06
     -5.80633133938579E-31
      2.82000000000000E-01
      4.23000000000000E+00   4.23000000000000E+00   0.00000000000000E+00   0.00000000000000E+00   1.80358007912712E-06
      2.14053302928000E-06   3.94411310840712E-06   3.69669761940895E-29   0.00000000000000E+00   0.00000000000000E+00
      0.00000000000000E+00   0.00000000000000E+00  -5.13597090787994E-11  -3.94406174869804E-06  -3.94411310840712E-06
      0.00000000000000E+00
      2.92000000000000E-01
      4.38000000000000E+00   4.38000000000000E+00   0.00000000000000E+00   0.00000000000000E+00   1.90395766363557E-06
      2.21446419578301E-06   4.11842185941858E-06  -2.49285158837630E-28   0.00000000000000E+00   0.00000000000000E+00
      0.00000000000000E+00   0.00000000000000E+00  -5.35928770095637E-11  -4.11836826654157E-06  -4.11842185941858E-06
     -1.93544377979526E-31
      3.02000000000000E-01
      4.53000000000000E+00   4.53000000000000E+00   0.00000000000000E+00   0.00000000000000E+00   2.02595396792745E-06
      2.30085465855991E-06   4.32680862648736E-06   8.24499050192782E-29   0.00000000000000E+00   0.00000000000000E+00
      0.00000000000000E+00   0.00000000000000E+00  -5.62693092200712E-11  -4.32675235717813E-06  -4.32680862648735E-06
     -3.87088755959053E-31
      3.12000000000000E-01
      4.68000000000000E+00   4.68000000000000E+00   0.00000000000000E+00   0.00000000000000E+00   2.18155500423230E-06
      2.40592880401719E-06   4.58748380824950E-06  -1.38964863389300E-28   0.00000000000000E+00   0.00000000000000E+00
      0.00000000000000E+00   0.00000000000000E+00  -5.96265293023999E-11  -4.58742418172020E-06  -4.58748380824951E-06
      0.00000000000000E+00
      3.22000000000000E-01
      4.83000000000000E+00   4.83000000000000E+00   0.00000000000000E+00   0.00000000000000E+00   2.37849921768571E-06
      2.53184854912666E-06   4.91034776681237E-06  -1.72254496401778E-28   0.00000000000000E+00   0.00000000000000E+00
      0.00000000000000E+00   0.00000000000000E+00  -6.37926838063100E-11  -4.91028397412857E-06  -4.91034776681238E-06
     -3.87088755959053E-31
      3.32000000000000E-01
      4.98000000000000E+00   4.98000000000000E+00   0.00000000000000E+00   0.00000000000000E+00   2.60979821409465E-06
      2.67159861600782E-06   5.28139683010247E-06   2.58962377736606E-28   0.00000000000000E+00   0.00000000000000E+00
      0.00000000000000E+00   0.00000000000000E+00  -6.85826761751748E-11  -5.28132824742630E-06  -5.28139683010248E-06
      3.87088755959053E-31
      3.42000000000000E-01
      5.13000000000000E+00   5.13000000000000E+00   0.00000000000000E+00   0.00000000000000E+00   2.86605807997794E-06
      2.81827185536838E-06   5.68432993534631E-06   5.03215382746768E-29   0.00000000000000E+00   0.00000000000000E+00
      0.00000000000000E+00   0.00000000000000E+00  -7.37804851805673E-11  -5.68425615486112E-06  -5.68432993534630E-06
     -5.80633133938579E-31
      3.52000000000000E-01
      5.28000000000000E+00   5.28000000000000E+00   0.00000000000000E+00   0.00000000000000E+00   3.15241099859746E-06
      2.97375620843031E-06   6.12616720702777E-06   8.94175026265411E-29   0.00000000000000E+00   0.00000000000000E+00
      0.00000000000000E+00   0.00000000000000E+00  -7.94755963903949E-11  -6.12608773143139E-06  -6.12616720702778E-06
     -1.93544377979526E-31
      3.62000000000000E-01
      5.43000000000000E+00   5.43000000000000E+00   0.00000000000000E+00   0.00000000000000E+00   3.47615906710947E-06
      3.14066322896263E-06   6.61682229607210E-06  -1.64319176904618E-28   0.00000000000000E+00   0.00000000000000E+00
      0.00000000000000E+00   0.00000000000000E+00  -8.57950874152014E-11  -6.61673650098469E-06  -6.61682229607210E-06
      3.87088755959053E-31
      3.72000000000000E-01
      5.58000000000000E+00   5.58000000000000E+00   0.00000000000000E+00   0.00000000000000E+00   3.82888062973599E-06
      3.31444559361422E-06   7.14332622335021E-06  -2.16769703337069E-29   0.00000000000000E+00   0.00000000000000E+00
      0.00000000000000E+00   0.00000000000000E+00  -9.25632045676373E-11  -7.14323366014565E-06  -7.14332622335022E-06
      3.87088755959053E-31
      3.82000000000000E-01
      5.73000000000000E+00   5.73000000000000E+00   0.00000000000000E+00   0.00000000000000E+00   4.19395384509918E-06
      3.48862722761281E-06   7.68258107271199E-06   1.98963620562953E-28   0.00000000000000E+00   0.00000000000000E+00
      0.00000000000000E+00   0.00000000000000E+00  -9.94688535183162E-11  -7.68248160385846E-06  -7.68258107271198E-06
      1.93544377979526E-31
      3.92000000000000E-01
      5.88000000000000E+00   5.88000000000000E+00   0.00000000000000E+00   0.00000000000000E+00   4.56826846798550E-06
      3.66371957704239E-06   8.23198804502789E-06   1.79802727142980E-28   0.00000000000000E+00   0.00000000000000E+00
      0.00000000000000E+00   0.00000000000000E+00  -1.06476582718435E-10  -8.23188156844516E-06  -8.23198804502787E-06
     -1.93544377979526E-31
      4.02000000000000E-01
      6.03000000000000E+00   6.03000000000000E+00   0.00000000000000E+00   0.00000000000000E+00   4.96131961842348E-06
      3.84518846314424E-06   8.80650808156771E-06   4.53087388850071E-28   0.00000000000000E+00   0.00000000000000E+00
      0.00000000000000E+00   0.00000000000000E+00  -1.13791316542686E-10  -8.80639429025121E-06  -8.80650808156775E-06
      1.93544377979526E-31
      4.12000000000000E-01
      6.18000000000000E+00   6.18000000000000E+00   0.00000000000000E+00   0.00000000000000E+00   5.38587469973143E-06
      4.03843496320074E-06   9.42430966293217E-06   9.53399605927146E-28   0.00000000000000E+00   0.00000000000000E+00
      0.00000000000000E+00   0.00000000000000E+00  -1.21655763840786E-10  -9.42418800716834E-06  -9.42430966293218E-06
      0.00000000000000E+00
      4.22000000000000E-01
      6.33000000000000E+00   6.33000000000000E+00   0.00000000000000E+00   0.00000000000000E+00   5.85292216170756E-06
      4.24937411850115E-06   1.01022962802087E-05   1.57254807108365E-28   0.00000000000000E+00   0.00000000000000E+00
      0.00000000000000E+00   0.00000000000000E+00  -1.30286905896154E-10  -1.01021659933028E-05  -1.01022962802087E-05
      3.87088755959053E-31
      4.32000000000000E-01
      6.48000000000000E+00   6.48000000000000E+00   0.00000000000000E+00   0.00000000000000E+00   6.37268247449888E-06
      4.48373540016680E-06   1.08564178746657E-05  -4.11281803206493E-29   0.00000000000000E+00   0.00000000000000E+00
      0.00000000000000E+00   0.00000000000000E+00  -1.39886652428662E-10  -1.08562779880132E-05  -1.08564178746657E-05
      0.00000000000000E+00
      4.42000000000000E-01
      6.63000000000000E+00   6.63000000000000E+00   0.00000000000000E+00   0.00000000000000E+00   6.95616359988058E-06
      4.74793728875787E-06   1.17041008886385E-05   2.42220789041377E-28   0.00000000000000E+00   0.00000000000000E+00
      0.00000000000000E+00   0.00000000000000E+00  -1.50676484496747E-10  -1.17039502121540E-05  -1.17041008886385E-05
      3.87088755959053E-31
      4.52000000000000E-01
      6.78000000000000E+00   6.78000000000000E+00   0.00000000000000E+00   0.00000000000000E+00   7.61763087339826E-06
      5.05036891671359E-06   1.26679997901118E-05  -1.30448910758201E-28   0.00000000000000E+00   0.00000000000000E+00
      0.00000000000000E+00   0.00000000000000E+00  -1.62945807789554E-10  -1.26678368443041E-05  -1.26679997901119E-05
      0.00000000000000E+00
      4.62000000000000E-01
      6.93000000000000E+00   6.93000000000000E+00   0.00000000000000E+00   0.00000000000000E+00   8.37832219341533E-06
      5.40256679332244E-06   1.37808889867378E-05  -1.15739538031757E-28   0.00000000000000E+00   0.00000000000000E+00
      0.00000000000000E+00   0.00000000000000E+00  -1.77115138134256E-10  -1.37807118715997E-05  -1.37808889867378E-05
     -1.93544377979526E-31
      4.72000000000000E-01
      7.08000000000000E+00   7.08000000000000E+00   0.00000000000000E+00   0.00000000000000E+00   9.26887064711252E-06
      5.81969411276323E-06   1.50885647598758E-05  -1.72448040779758E-28   0.00000000000000E+00   0.00000000000000E+00
      0.00000000000000E+00   0.00000000000000E+00  -1.93776199213604E-10  -1.50883709836766E-05  -1.50885647598758E-05
     -1.93544377979526E-31
      4.82000000000000E-01
      7.23000000000000E+00   7.23000000000000E+00   0.00000000000000E+00   0.00000000000000E+00   1.03215006984328E-05
      6.31815990926964E-06   1.66396606077024E-05  -7.35081547566241E-28   0.00000000000000E+00   0.00000000000000E+00
      0.00000000000000E+00   0.00000000000000E+00  -2.13564527143867E-10  -1.66394470431754E-05  -1.66396606077025E-05
     -3.87088755959053E-31
      4.92000000000000E-01
      7.38000000000000E+00   7.38000000000000E+00   0.00000000000000E+00   0.00000000000000E+00   1.15478588151048E-05
      6.90953255010464E-06   1.84573913652094E-05   1.59867656211089E-28   0.00000000000000E+00   0.00000000000000E+00
      0.00000000000000E+00   0.00000000000000E+00  -2.36788993791917E-10  -1.84571545762156E-05  -1.84573913652094E-05
     -3.87088755959053E-31
      5.02000000000000E-01
      7.53000000000000E+00   7.53000000000000E+00   0.00000000000000E+00   0.00000000000000E+00   1.29287803942919E-05
      7.59960191945640E-06   2.05283823137483E-05   1.64125632526638E-28   0.00000000000000E+00   0.00000000000000E+00
      0.00000000000000E+00   0.00000000000000E+00  -2.63274628405557E-10  -2.05281190391199E-05  -2.05283823137483E-05
     -1.93544377979526E-31
      5.12000000000000E-01
      7.68000000000000E+00   7.68000000000000E+00   0.00000000000000E+00   0.00000000000000E+00   1.44554161249992E-05
      8.39670371392795E-06   2.28521198389272E-05  -4.29668519114548E-29   0.00000000000000E+00   0.00000000000000E+00
      0.00000000000000E+00   0.00000000000000E+00  -2.93015127445310E-10  -2.28518268237997E-05  -2.28521198389272E-05
     -5.80633133938579E-31
      5.22000000000000E-01
      7.83000000000000E+00   7.83000000000000E+00   0.00000000000000E+00   0.00000000000000E+00   1.61770427718523E-05
      9.32172467196686E-06   2.54987674438192E-05  -3.22928794658840E-28   0.00000000000000E+00   0.00000000000000E+00
      0.00000000000000E+00   0.00000000000000E+00  -3.26946788608919E-10  -2.54984404970306E-05  -2.54987674438192E-05
     -3.87088755959053E-31
      5.32000000000000E-01
      7.98000000000000E+00   7.98000000000000E+00   0.00000000000000E+00   0.00000000000000E+00   1.82045816623868E-05
      1.04121206610330E-05   2.86167023234197E-05   3.48718583024611E-28   0.00000000000000E+00   0.00000000000000E+00
      0.00000000000000E+00   0.00000000000000E+00  -3.67045909375870E-10  -2.86163352775104E-05  -2.86167023234197E-05
      3.87088755959053E-31
      5.42000000000000E-01
      8.13000000000000E+00   8.13000000000000E+00   0.00000000000000E+00   0.00000000000000E+00   2.07070424072325E-05
      1.17273366750714E-05   3.24343790823039E-05   4.41523112265794E-28   0.00000000000000E+00   0.00000000000000E+00
      0.00000000000000E+00   0.00000000000000E+00  -4.16354637865628E-10  -3.24339627276661E-05  -3.24343790823039E-05
     -1.93544377979526E-31
      5.52000000000000E-01
      8.28000000000000E+00   8.28000000000000E+00   0.00000000000000E+00   0.00000000000000E+00   2.39276283153676E-05
      1.33535921503266E-05   3.72812204656941E-05   8.15305692238754E-29   0.00000000000000E+00   0.00000000000000E+00
      0.00000000000000E+00   0.00000000000000E+00  -4.79278373873634E-10  -3.72807411873203E-05  -3.72812204656942E-05
     -5.80633133938579E-31
      5.62000000000000E-01
      8.43000000000000E+00   8.43000000000000E+00   0.00000000000000E+00   0.00000000000000E+00   2.82134462383979E-05
      1.54004193430327E-05   4.36138655814306E-05   4.60006600362839E-28   0.00000000000000E+00   0.00000000000000E+00
      0.00000000000000E+00   0.00000000000000E+00  -5.61973015532934E-10  -4.36133036084151E-05  -4.36138655814306E-05
     -5.80633133938579E-31
      5.72000000000000E-01
      8.58000000000000E+00   8.58000000000000E+00   0.00000000000000E+00   0.00000000000000E+00   3.40435376847130E-05
      1.79870002102638E-05   5.20305378949768E-05  -2.17253564282018E-29   0.00000000000000E+00   0.00000000000000E+00
      0.00000000000000E+00   0.00000000000000E+00  -6.72594776438818E-10  -5.20298653002004E-05  -5.20305378949768E-05
      1.93544377979526E-31
      5.82000000000000E-01
      8.73000000000000E+00   8.73000000000000E+00   0.00000000000000E+00   0.00000000000000E+00   4.20285617258702E-05
      2.12174061022652E-05   6.32459678281354E-05   1.06642952266719E-28   0.00000000000000E+00   0.00000000000000E+00
      0.00000000000000E+00   0.00000000000000E+00  -8.21012117066786E-10  -6.32451468160183E-05  -6.32459678281354E-05
     -3.87088755959053E-31
      5.92000000000000E-01
      8.88000000000000E+00   8.88000000000000E+00   0.00000000000000E+00   0.00000000000000E+00   5.28678986317346E-05
      2.51498962457670E-05   7.80177948775017E-05   1.00710817081646E-27   0.00000000000000E+00   0.00000000000000E+00
      0.00000000000000E+00   0.00000000000000E+00  -1.01777483962208E-09  -7.80167771026619E-05  -7.80177948775015E-05
      0.00000000000000E+00
      6.02000000000000E-01
      9.03000000000000E+00   9.03000000000000E+00   0.00000000000000E+00   0.00000000000000E+00   6.73578761588606E-05
      2.97803100029011E-05   9.71381861617618E-05   3.10529857944526E-28   0.00000000000000E+00   0.00000000000000E+00
      0.00000000000000E+00   0.00000000000000E+00  -1.27372636405850E-09  -9.71369124353977E-05  -9.71381861617618E-05
     -5.80633133938579E-31
      6.12000000000000E-01
      9.18000000000001E+00   9.18000000000001E+00   0.00000000000000E+00   0.00000000000000E+00   8.62631691251832E-05
      3.50345232104584E-05   1.21297692335642E-04  -1.24603870543219E-27   0.00000000000000E+00   0.00000000000000E+00
      0.00000000000000E+00   0.00000000000000E+00  -1.59815144072764E-09  -1.21296094184201E-04  -1.21297692335642E-04
      0.00000000000000E+00
      6.22000000000000E-01
      9.33000000000001E+00   9.33000000000001E+00   0.00000000000000E+00   0.00000000000000E+00   1.10149037476743E-04
      4.07883029672723E-05   1.50937340444015E-04   6.52026816365777E-28   0.00000000000000E+00   0.00000000000000E+00
      0.00000000000000E+00   0.00000000000000E+00  -1.99652106166348E-09  -1.50935343922953E-04  -1.50937340444015E-04
      1.93544377979526E-31
      6.32000000000000E-01
      9.48000000000001E+00   9.48000000000001E+00   0.00000000000000E+00   0.00000000000000E+00   1.39455509564853E-04
      4.69009385873122E-05   1.86356448152165E-04  -8.22563606412987E-29   0.00000000000000E+00   0.00000000000000E+00
      0.00000000000000E+00   0.00000000000000E+00  -2.47153696207836E-09  -1.86353976615203E-04  -1.86356448152165E-04
     -1.93544377979526E-31
      6.42000000000000E-01
      9.63000000000001E+00   9.63000000000001E+00   0.00000000000000E+00   0.00000000000000E+00   1.74495313796781E-04
      5.32366703250872E-05   2.27731984121868E-04  -1.50035601809729E-27   0.00000000000000E+00   0.00000000000000E+00
      0.00000000000000E+00   0.00000000000000E+00  -3.02330880083931E-09  -2.27728960813067E-04  -2.27731984121868E-04
      0.00000000000000E+00
      6.52000000000000E-01
      9.78000000000000E+00   9.78000000000000E+00   0.00000000000000E+00   0.00000000000000E+00   2.15411579715608E-04
      5.96758014199829E-05   2.75087381135590E-04   1.63211135340685E-27   0.00000000000000E+00   0.00000000000000E+00
      0.00000000000000E+00   0.00000000000000E+00  -3.64900639471532E-09  -2.75083732129195E-04  -2.75087381135590E-04
      3.87088755959053E-31
      6.62000000000000E-01
      9.93000000000001E+00   9.93000000000001E+00   0.00000000000000E+00   0.00000000000000E+00   2.62240280534332E-04
      6.61202522984182E-05   3.28360532832750E-04  -5.99987571736531E-28   0.00000000000000E+00   0.00000000000000E+00
      0.00000000000000E+00   0.00000000000000E+00  -4.34391271397367E-09  -3.28356188920036E-04  -3.28360532832750E-04
     -7.74177511918105E-31
      6.72000000000000E-01
      1.00800000000000E+01   1.00800000000000E+01   0.00000000000000E+00   0.00000000000000E+00   3.14949759288619E-04
      7.24927429904995E-05   3.87442502279118E-04   1.31271474364614E-28   0.00000000000000E+00   0.00000000000000E+00
      0.00000000000000E+00   0.00000000000000E+00  -5.10221255312492E-09  -3.87437400066565E-04  -3.87442502279119E-04
      1.93544377979526E-31
      6.82000000000000E-01