DF-ISE text

Info {
  version   = 1.0
  type      = xyplot
  datasets  = [
    "time"
    "Cathode OuterVoltage" "Cathode InnerVoltage" "Cathode QuasiFermiPotential" "Cathode DisplacementCurrent" "Cathode eCurrent"
    "Cathode hCurrent" "Cathode TotalCurrent" "Cathode Charge" "Anode OuterVoltage" "Anode InnerVoltage"
    "Anode QuasiFermiPotential" "Anode DisplacementCurrent" "Anode eCurrent" "Anode hCurrent" "Anode TotalCurrent"
    "Anode Charge" ]
  functions = [
    Time
    OuterVoltage InnerVoltage QuasiFermiPotential DisplacementCurrent eCurrent
    hCurrent TotalCurrent Charge OuterVoltage InnerVoltage
    QuasiFermiPotential DisplacementCurrent eCurrent hCurrent TotalCurrent
    Charge ]
}

Data {
      0.00000000000000E+00
      0.00000000000000E+00   0.00000000000000E+00   0.00000000000000E+00   0.00000000000000E+00   1.01964694767277E-20
      2.91137079695445E-21   1.31078402736821E-20  -1.97415265539117E-29   0.00000000000000E+00   0.00000000000000E+00
      0.00000000000000E+00   0.00000000000000E+00   9.20002686262497E-25  -1.82467839097025E-19  -1.82466919094339E-19
      3.87088755959053E-31
      0.00000000000000E+00
      0.00000000000000E+00   0.00000000000000E+00   0.00000000000000E+00   0.00000000000000E+00  -1.82292125694236E-22
      2.88467048404866E-21   2.70237835835443E-21  -1.08965484802473E-28   0.00000000000000E+00   0.00000000000000E+00
      0.00000000000000E+00   0.00000000000000E+00   9.54632330412491E-27  -1.82467841941829E-19  -1.82467832395506E-19
     -7.74177511918105E-31
      0.00000000000000E+00
      0.00000000000000E+00   0.00000000000000E+00   0.00000000000000E+00   0.00000000000000E+00  -2.96160620896874E-23
     -1.23780598947859E-23  -4.19941219844732E-23  -1.60448289345027E-28   0.00000000000000E+00   0.00000000000000E+00
      0.00000000000000E+00   0.00000000000000E+00  -7.35015890866820E-27   3.48665981569198E-21   3.48665246553307E-21
      0.00000000000000E+00
      1.00000000000000E-02
      1.50000000000000E-01   1.50000000000000E-01   0.00000000000000E+00   0.00000000000000E+00   2.31190034942706E-11
      8.29208392743219E-13   2.39482118870138E-11   2.32833886709370E-28   0.00000000000000E+00   0.00000000000000E+00
      0.00000000000000E+00   0.00000000000000E+00  -4.09104249129967E-13  -2.35391076565128E-11  -2.39482119056427E-11
     -1.93544377979526E-31
      2.00000000000000E-02
      3.00000000000000E-01   3.00000000000000E-01   0.00000000000000E+00   0.00000000000000E+00   3.95525780838389E-11
      8.99833700605650E-13   4.04524117844446E-11   3.71605205720690E-29   0.00000000000000E+00   0.00000000000000E+00
      0.00000000000000E+00   0.00000000000000E+00  -4.12708983709546E-13  -4.00397027689755E-11  -4.04524117526851E-11
     -1.93544377979526E-31
      3.00000000000000E-02
      4.50000000000000E-01   4.50000000000000E-01   0.00000000000000E+00   0.00000000000000E+00   5.55102439259595E-11
      9.70360349370943E-13   5.64806042753304E-11  -3.40638105243966E-29   0.00000000000000E+00   0.00000000000000E+00
      0.00000000000000E+00   0.00000000000000E+00  -4.14682198369709E-13  -5.60659220662814E-11  -5.64806042646511E-11
     -1.93544377979526E-31
      4.00000000000000E-02
      6.00000000000000E-01   6.00000000000000E-01   0.00000000000000E+00   0.00000000000000E+00   7.01319576992476E-11
      1.03908893274984E-12   7.11710466319974E-11   3.28831898187215E-28   0.00000000000000E+00   0.00000000000000E+00
      0.00000000000000E+00   0.00000000000000E+00  -4.16434399447543E-13  -7.07546122290746E-11  -7.11710466285221E-11
      0.00000000000000E+00
      5.00000000000000E-02
      7.50000000000000E-01   7.50000000000000E-01   0.00000000000000E+00   0.00000000000000E+00   8.18135462603978E-11
      1.10184574595732E-12   8.29153920063552E-11   5.18698932985130E-29   0.00000000000000E+00   0.00000000000000E+00
      0.00000000000000E+00   0.00000000000000E+00  -4.18062267775199E-13  -8.24973297302702E-11  -8.29153919980454E-11
     -3.87088755959053E-31
      6.00000000000000E-02
      9.00000000000000E-01   9.00000000000000E-01   0.00000000000000E+00   0.00000000000000E+00   9.37667250873960E-11
      1.16419693497935E-12   9.49309220223754E-11  -3.87088755959053E-31   0.00000000000000E+00   0.00000000000000E+00
      0.00000000000000E+00   0.00000000000000E+00  -4.19595982886127E-13  -9.45113260466306E-11  -9.49309220295168E-11
      5.80633133938579E-31
      7.00000000000000E-02
      1.05000000000000E+00   1.05000000000000E+00   0.00000000000000E+00   0.00000000000000E+00   1.06285222062740E-10
      1.22895152103016E-12   1.07514173583770E-10  -8.90304138705821E-30   0.00000000000000E+00   0.00000000000000E+00
      0.00000000000000E+00   0.00000000000000E+00  -4.21035908320119E-13  -1.07093137693623E-10  -1.07514173601943E-10
     -1.93544377979526E-31
      8.00000000000000E-02
      1.20000000000000E+00   1.20000000000000E+00   0.00000000000000E+00   0.00000000000000E+00   1.18062664008946E-10
      1.29636649337085E-12   1.19359030502317E-10  -2.08060206327991E-28   0.00000000000000E+00   0.00000000000000E+00
      0.00000000000000E+00   0.00000000000000E+00  -4.22367098066653E-13  -1.18936663405001E-10  -1.19359030503068E-10
      0.00000000000000E+00
      9.00000000000000E-02
      1.35000000000000E+00   1.35000000000000E+00   0.00000000000000E+00   0.00000000000000E+00   1.33608633834921E-10
      1.37399234973465E-12   1.34982626184655E-10  -9.67721889897631E-29   0.00000000000000E+00   0.00000000000000E+00
      0.00000000000000E+00   0.00000000000000E+00  -4.23581522408133E-13  -1.34559044633714E-10  -1.34982626156122E-10
      0.00000000000000E+00
      1.00000000000000E-01
      1.50000000000000E+00   1.50000000000000E+00   0.00000000000000E+00   0.00000000000000E+00   1.50542471201716E-10
      1.45938501682108E-12   1.52001856218537E-10   7.35468636322200E-29   0.00000000000000E+00   0.00000000000000E+00
      0.00000000000000E+00   0.00000000000000E+00  -4.24694877108363E-13  -1.51577161338038E-10  -1.52001856215147E-10
      1.93544377979526E-31
      1.10000000000000E-01
      1.65000000000000E+00   1.65000000000000E+00   0.00000000000000E+00   0.00000000000000E+00   1.65078457221074E-10
      1.54672188800210E-12   1.66625179109076E-10  -2.82574791850108E-29   0.00000000000000E+00   0.00000000000000E+00
      0.00000000000000E+00   0.00000000000000E+00  -4.25734042984503E-13  -1.66199445094986E-10  -1.66625179137971E-10
      1.93544377979526E-31
      1.20000000000000E-01
      1.80000000000000E+00   1.80000000000000E+00   0.00000000000000E+00   0.00000000000000E+00   1.74787134416646E-10
      1.63046962129705E-12   1.76417604037943E-10  -1.21932958127102E-28   0.00000000000000E+00   0.00000000000000E+00
      0.00000000000000E+00   0.00000000000000E+00  -4.26721628979713E-13  -1.75990882437094E-10  -1.76417604066073E-10
     -1.93544377979526E-31
      1.30000000000000E-01
      1.95000000000000E+00   1.95000000000000E+00   0.00000000000000E+00   0.00000000000000E+00   1.79735324177520E-10
      1.70872556414149E-12   1.81444049741662E-10   4.41281181793320E-29   0.00000000000000E+00   0.00000000000000E+00
      0.00000000000000E+00   0.00000000000000E+00  -4.27673118772396E-13  -1.81016376623837E-10  -1.81444049742610E-10
     -1.93544377979526E-31
      1.40000000000000E-01
      2.10000000000000E+00   2.10000000000000E+00   0.00000000000000E+00   0.00000000000000E+00   1.83031840033902E-10
      1.78589277233934E-12   1.84817732806241E-10   1.91608934199731E-29   0.00000000000000E+00   0.00000000000000E+00
      0.00000000000000E+00   0.00000000000000E+00  -4.28597014976276E-13  -1.84389135786478E-10  -1.84817732801454E-10
      1.93544377979526E-31
      1.50000000000000E-01
      2.25000000000000E+00   2.25000000000000E+00   0.00000000000000E+00   0.00000000000000E+00   1.86550788202774E-10
      1.86651788627286E-12   1.88417306089047E-10  -3.63863430601509E-29   0.00000000000000E+00   0.00000000000000E+00
      0.00000000000000E+00   0.00000000000000E+00  -4.29498469199696E-13  -1.87987807584477E-10  -1.88417306053677E-10
      1.93544377979526E-31
      1.60000000000000E-01
      2.40000000000000E+00   2.40000000000000E+00   0.00000000000000E+00   0.00000000000000E+00   1.91315013428392E-10
      1.95476937217153E-12   1.93269782800564E-10   6.90953429386909E-29   0.00000000000000E+00   0.00000000000000E+00
      0.00000000000000E+00   0.00000000000000E+00  -4.30384347521509E-13  -1.92839398445544E-10  -1.93269782793066E-10
     -3.87088755959053E-31
      1.70000000000000E-01
      2.55000000000000E+00   2.55000000000000E+00   0.00000000000000E+00   0.00000000000000E+00   1.99140217357466E-10
      2.05631026063729E-12   2.01196527618103E-10   7.41274967661586E-29   0.00000000000000E+00   0.00000000000000E+00
      0.00000000000000E+00   0.00000000000000E+00  -4.31259593445970E-13  -2.00765268010986E-10  -2.01196527604432E-10
     -5.80633133938579E-31
      1.80000000000000E-01
      2.70000000000000E+00   2.70000000000000E+00   0.00000000000000E+00   0.00000000000000E+00   2.12754928425045E-10
      2.17856319958080E-12   2.14933491624626E-10  -1.31610177026078E-29   0.00000000000000E+00   0.00000000000000E+00
      0.00000000000000E+00   0.00000000000000E+00  -4.32126799372249E-13  -2.14501364835020E-10  -2.14933491634392E-10
      3.87088755959053E-31
      1.90000000000000E-01
      2.85000000000000E+00   2.85000000000000E+00   0.00000000000000E+00   0.00000000000000E+00   2.32559742138038E-10
      2.32610428594852E-12   2.34885846423986E-10   5.22569820544721E-29   0.00000000000000E+00   0.00000000000000E+00
      0.00000000000000E+00   0.00000000000000E+00  -4.32988958967900E-13  -2.34452857491283E-10  -2.34885846450251E-10
      0.00000000000000E+00
      2.00000000000000E-01
      3.00000000000000E+00   3.00000000000000E+00   0.00000000000000E+00   0.00000000000000E+00   2.54229953820399E-10
      2.49691540404213E-12   2.56726869224441E-10  -5.01279938966973E-29   0.00000000000000E+00   0.00000000000000E+00
      0.00000000000000E+00   0.00000000000000E+00  -4.33849875790728E-13  -2.56293019358283E-10  -2.56726869234073E-10
      1.93544377979526E-31
      2.10000000000000E-01
      3.15000000000000E+00   3.15000000000000E+00   0.00000000000000E+00   0.00000000000000E+00   2.74929561743509E-10
      2.69143910359528E-12   2.77621000847105E-10   9.73528221237017E-29   0.00000000000000E+00   0.00000000000000E+00
      0.00000000000000E+00   0.00000000000000E+00  -4.34712053996614E-13  -2.77186288771570E-10  -2.77621000825567E-10
      1.93544377979526E-31
      2.20000000000000E-01
      3.30000000000000E+00   3.30000000000000E+00   0.00000000000000E+00   0.00000000000000E+00   2.93357743124008E-10
      2.91240641110714E-12   2.96270149535115E-10  -4.25797631554958E-29   0.00000000000000E+00   0.00000000000000E+00
      0.00000000000000E+00   0.00000000000000E+00  -4.35574501582011E-13  -2.95834575026317E-10  -2.96270149527899E-10
      0.00000000000000E+00
      2.30000000000000E-01
      3.45000000000000E+00   3.45000000000000E+00   0.00000000000000E+00   0.00000000000000E+00   3.07617500744388E-10
      3.16083113376200E-12   3.10778331878150E-10  -4.79990057389225E-29   0.00000000000000E+00   0.00000000000000E+00
      0.00000000000000E+00   0.00000000000000E+00  -4.36432395274750E-13  -3.10341899484266E-10  -3.10778331879541E-10
     -3.87088755959053E-31
      2.40000000000000E-01
      3.60000000000000E+00   3.60000000000000E+00   0.00000000000000E+00   0.00000000000000E+00   3.18628281930398E-10
      3.44089722431232E-12   3.22069179154711E-10  -6.46438222451618E-29   0.00000000000000E+00   0.00000000000000E+00
      0.00000000000000E+00   0.00000000000000E+00  -4.37279678722815E-13  -3.21631899465526E-10  -3.22069179144249E-10
     -1.93544377979526E-31
      2.50000000000000E-01
      3.75000000000000E+00   3.75000000000000E+00   0.00000000000000E+00   0.00000000000000E+00   3.28489778339827E-10
      3.75816831783678E-12   3.32247946657663E-10   1.12642827984084E-28   0.00000000000000E+00   0.00000000000000E+00
      0.00000000000000E+00   0.00000000000000E+00  -4.38114275002715E-13  -3.31809832356048E-10  -3.32247946631051E-10
     -1.93544377979526E-31
      2.60000000000000E-01
      3.90000000000000E+00   3.90000000000000E+00   0.00000000000000E+00   0.00000000000000E+00   3.38600983427413E-10
      4.11865137264679E-12   3.42719634800060E-10   1.08578396046514E-28   0.00000000000000E+00   0.00000000000000E+00
      0.00000000000000E+00   0.00000000000000E+00  -4.38934672983403E-13  -3.42280700137705E-10  -3.42719634810689E-10
     -1.93544377979526E-31
      2.70000000000000E-01
      4.05000000000000E+00   4.05000000000000E+00   0.00000000000000E+00   0.00000000000000E+00   3.49886907596655E-10
      4.53180741553719E-12   3.54418715012192E-10  -5.80633133938579E-29   0.00000000000000E+00   0.00000000000000E+00
      0.00000000000000E+00   0.00000000000000E+00  -4.39736963033524E-13  -3.53978978054109E-10  -3.54418715017143E-10
      0.00000000000000E+00
      2.80000000000000E-01
      4.20000000000000E+00   4.20000000000000E+00   0.00000000000000E+00   0.00000000000000E+00   3.63188441618143E-10
      5.01334981038868E-12   3.68201791428532E-10  -2.03415141256482E-28   0.00000000000000E+00   0.00000000000000E+00
      0.00000000000000E+00   0.00000000000000E+00  -4.40522756011885E-13  -3.67761268687976E-10  -3.68201791443988E-10
      3.87088755959053E-31
      2.90000000000000E-01
      4.35000000000000E+00   4.35000000000000E+00   0.00000000000000E+00   0.00000000000000E+00   3.79835474359995E-10
      5.58835539303747E-12   3.85423829753032E-10  -1.35481064585668E-30   0.00000000000000E+00   0.00000000000000E+00
      0.00000000000000E+00   0.00000000000000E+00  -4.41297308171801E-13  -3.84982532467516E-10  -3.85423829775687E-10
      0.00000000000000E+00
      3.00000000000000E-01
      4.50000000000000E+00   4.50000000000000E+00   0.00000000000000E+00   0.00000000000000E+00   4.01915581059707E-10
      6.29523931569224E-12   4.08210820375399E-10   6.69663547809161E-29   0.00000000000000E+00   0.00000000000000E+00
      0.00000000000000E+00   0.00000000000000E+00  -4.42062884784155E-13  -4.07768757461946E-10  -4.08210820346730E-10
      5.80633133938579E-31
      3.10000000000000E-01
      4.65000000000000E+00   4.65000000000000E+00   0.00000000000000E+00   0.00000000000000E+00   4.30826698515599E-10
      7.18885160177502E-12   4.38015550117374E-10   1.19997514347306E-29   0.00000000000000E+00   0.00000000000000E+00
      0.00000000000000E+00   0.00000000000000E+00  -4.42820952656924E-13  -4.37572729157799E-10  -4.38015550110456E-10
      0.00000000000000E+00
      3.20000000000000E-01
      4.80000000000000E+00   4.80000000000000E+00   0.00000000000000E+00   0.00000000000000E+00   4.65190773411193E-10
      8.34568231615835E-12   4.73536455727352E-10  -3.26122276895502E-28   0.00000000000000E+00   0.00000000000000E+00
      0.00000000000000E+00   0.00000000000000E+00  -4.43573164929923E-13  -4.73092882571626E-10  -4.73536455736556E-10
      0.00000000000000E+00
      3.30000000000000E-01
      4.95000000000000E+00   4.95000000000000E+00   0.00000000000000E+00   0.00000000000000E+00   5.03705483345867E-10
      9.88772456054215E-12   5.13593207906409E-10   4.20378388971531E-28   0.00000000000000E+00   0.00000000000000E+00
      0.00000000000000E+00   0.00000000000000E+00  -4.44320136106195E-13  -5.13148887751571E-10  -5.13593207887677E-10
      1.93544377979526E-31
      3.40000000000000E-01
      5.10000000000000E+00   5.10000000000000E+00   0.00000000000000E+00   0.00000000000000E+00   5.48510357703334E-10
      1.20260089327645E-11   5.60536366636099E-10  -1.91028301065792E-28   0.00000000000000E+00   0.00000000000000E+00
      0.00000000000000E+00   0.00000000000000E+00  -4.45061894607435E-13  -5.60091304730684E-10  -5.60536366625292E-10
      0.00000000000000E+00
      3.50000000000000E-01
      5.25000000000000E+00   5.25000000000000E+00   0.00000000000000E+00   0.00000000000000E+00   6.00612885373197E-10
      1.51178489330747E-11   6.15730734306272E-10  -2.92445555127064E-28   0.00000000000000E+00   0.00000000000000E+00
      0.00000000000000E+00   0.00000000000000E+00  -4.45797278747664E-13  -6.15284937029076E-10  -6.15730734307823E-10
     -1.93544377979526E-31
      3.60000000000000E-01
      5.40000000000000E+00   5.40000000000000E+00   0.00000000000000E+00   0.00000000000000E+00   6.56390124431635E-10
      1.97945256778221E-11   6.76184650109457E-10  -2.86445679409699E-28   0.00000000000000E+00   0.00000000000000E+00
      0.00000000000000E+00   0.00000000000000E+00  -4.46521707333382E-13  -6.75738128445510E-10  -6.76184650152843E-10
      1.93544377979526E-31
      3.70000000000000E-01
      5.55000000000000E+00   5.55000000000000E+00   0.00000000000000E+00   0.00000000000000E+00   7.14251376431878E-10
      2.72961446636786E-11   7.41547521095557E-10   4.43990803085033E-28   0.00000000000000E+00   0.00000000000000E+00
      0.00000000000000E+00   0.00000000000000E+00  -4.47227259879021E-13  -7.41100293835973E-10  -7.41547521095852E-10
     -3.87088755959053E-31
      3.80000000000000E-01
      5.70000000000000E+00   5.70000000000000E+00   0.00000000000000E+00   0.00000000000000E+00   7.80313166240267E-10
      4.02567109757440E-11   8.20569877216011E-10   2.43091738742285E-28   0.00000000000000E+00   0.00000000000000E+00
      0.00000000000000E+00   0.00000000000000E+00  -4.47914202191438E-13  -8.20121963031999E-10  -8.20569877234190E-10
      1.93544377979526E-31
      3.90000000000000E-01
      5.85000000000000E+00   5.85000000000000E+00   0.00000000000000E+00   0.00000000000000E+00   8.69378780235459E-10
      6.45579491971047E-11   9.33936729432564E-10  -2.93800365772921E-28   0.00000000000000E+00   0.00000000000000E+00
      0.00000000000000E+00   0.00000000000000E+00  -4.48601537921267E-13  -9.33488127874734E-10  -9.33936729412655E-10
     -1.93544377979526E-31
      4.00000000000000E-01
      6.00000000000000E+00   6.00000000000000E+00   0.00000000000000E+00   0.00000000000000E+00   1.01395422920658E-09
      1.13647600151669E-10   1.12760182935825E-09  -3.09671004767242E-29   0.00000000000000E+00   0.00000000000000E+00
      0.00000000000000E+00   0.00000000000000E+00  -4.49311905775642E-13  -1.12715251745113E-09  -1.12760182935691E-09
      5.80633133938579E-31
      4.10000000000000E-01
      6.15000000000000E+00   6.15000000000000E+00   0.00000000000000E+00   0.00000000000000E+00   1.29116390383401E-09
      2.17699829915773E-10   1.50886373374979E-09  -4.93344619469812E-28   0.00000000000000E+00   0.00000000000000E+00
      0.00000000000000E+00   0.00000000000000E+00  -4.50067196168633E-13  -1.50841366655450E-09  -1.50886373375067E-09
      0.00000000000000E+00
      4.20000000000000E-01
      6.30000000000000E+00   6.30000000000000E+00   0.00000000000000E+00   0.00000000000000E+00   1.88224617428754E-09
      4.41333636834831E-10   2.32357981112237E-09  -6.38115814198498E-28   0.00000000000000E+00   0.00000000000000E+00
      0.00000000000000E+00   0.00000000000000E+00  -4.50905388760524E-13  -2.32312890574811E-09  -2.32357981113688E-09
      0.00000000000000E+00
      4.30000000000000E-01
      6.45000000000000E+00   6.45000000000000E+00   0.00000000000000E+00   0.00000000000000E+00   3.19656105978974E-09
      9.17024597703412E-10   4.11358565749315E-09   3.17993413020362E-28   0.00000000000000E+00   0.00000000000000E+00
      0.00000000000000E+00   0.00000000000000E+00  -4.51839707227191E-13  -4.11313381780525E-09  -4.11358565751248E-09
      0.00000000000000E+00
      4.40000000000000E-01
      6.60000000000000E+00   6.60000000000000E+00   0.00000000000000E+00   0.00000000000000E+00   6.13578135288496E-09
      1.90809100261488E-09   8.04387235549984E-09   1.59287023077150E-28   0.00000000000000E+00   0.00000000000000E+00
      0.00000000000000E+00   0.00000000000000E+00  -4.52799828160864E-13  -8.04341955566799E-09  -8.04387235549615E-09
      3.87088755959053E-31
      4.50000000000000E-01
      6.75000000000000E+00   6.75000000000000E+00   0.00000000000000E+00   0.00000000000000E+00   1.26678464185998E-08
      3.92431208799741E-09   1.65921585065972E-08   7.62564849239334E-28   0.00000000000000E+00   0.00000000000000E+00
      0.00000000000000E+00   0.00000000000000E+00  -4.53749274899617E-13  -1.65917047572984E-08  -1.65921585065733E-08
      0.00000000000000E+00
      4.60000000000000E-01
      6.90000000000000E+00   6.90000000000000E+00   0.00000000000000E+00   0.00000000000000E+00   2.69938207554285E-08
      7.92578148469754E-09   3.49196022401260E-08   1.09159029180453E-28   0.00000000000000E+00   0.00000000000000E+00
      0.00000000000000E+00   0.00000000000000E+00  -4.54705179744806E-13  -3.49191475349696E-08  -3.49196022401493E-08
     -5.80633133938579E-31
      4.70000000000000E-01
      7.05000000000000E+00   7.05000000000000E+00   0.00000000000000E+00   0.00000000000000E+00   5.78243623954052E-08
      1.56689195175399E-08   7.34932819129451E-08  -1.12062194850146E-28   0.00000000000000E+00   0.00000000000000E+00
      0.00000000000000E+00   0.00000000000000E+00  -4.55759025869733E-13  -7.34928261539153E-08  -7.34932819129412E-08
     -7.74177511918105E-31
      4.80000000000000E-01
      7.20000000000000E+00   7.20000000000000E+00   0.00000000000000E+00   0.00000000000000E+00   1.22730333480681E-07
      3.02707403938322E-08   1.53001073874514E-07   2.44446549388142E-28   0.00000000000000E+00   0.00000000000000E+00
      0.00000000000000E+00   0.00000000000000E+00  -4.57114031435854E-13  -1.53000616760484E-07  -1.53001073874515E-07
     -1.93544377979526E-31
      4.90000000000000E-01
      7.35000000000000E+00   7.35000000000000E+00   0.00000000000000E+00   0.00000000000000E+00   2.56175456293293E-07
      5.70858631100664E-08   3.13261319403359E-07   4.81925501169020E-28   0.00000000000000E+00   0.00000000000000E+00
      0.00000000000000E+00   0.00000000000000E+00  -4.59146184435100E-13  -3.13260860257185E-07  -3.13261319403369E-07
     -3.87088755959053E-31
      5.00000000000000E-01
      7.50000000000000E+00   7.50000000000000E+00   0.00000000000000E+00   0.00000000000000E+00   5.23724181035148E-07
      1.04989073913964E-07   6.28713254949112E-07  -1.24594193324320E-27   0.00000000000000E+00   0.00000000000000E+00
      0.00000000000000E+00   0.00000000000000E+00  -4.62514777838246E-13  -6.28712792434328E-07  -6.28713254949106E-07
     -1.93544377979526E-31
      5.10000000000000E-01
      7.65000000000000E+00   7.65000000000000E+00   0.00000000000000E+00   0.00000000000000E+00   1.04583760450711E-06
      1.88095554425146E-07   1.23393315893225E-06   1.29394093898212E-27   0.00000000000000E+00   0.00000000000000E+00
      0.00000000000000E+00   0.00000000000000E+00  -4.68399313352193E-13  -1.23393269053294E-06  -1.23393315893225E-06
      0.00000000000000E+00
      5.20000000000000E-01
      7.80000000000000E+00   7.80000000000000E+00   0.00000000000000E+00   0.00000000000000E+00   2.03475825626064E-06
      3.27757365592781E-07   2.36251562185342E-06   3.59992543041919E-28   0.00000000000000E+00   0.00000000000000E+00
      0.00000000000000E+00   0.00000000000000E+00  -4.78914042027907E-13  -2.36251514293936E-06  -2.36251562185341E-06
     -5.80633133938579E-31
      5.30000000000000E-01
      7.95000000000000E+00   7.95000000000000E+00   0.00000000000000E+00   0.00000000000000E+00   3.84507101730128E-06
      5.54247711860869E-07   4.39931872916215E-06   3.51089501654861E-28   0.00000000000000E+00   0.00000000000000E+00
      0.00000000000000E+00   0.00000000000000E+00  -4.97682348153913E-13  -4.39931823147979E-06  -4.39931872916213E-06
      5.80633133938579E-31
      5.40000000000000E-01
      8.10000000000000E+00   8.10000000000000E+00   0.00000000000000E+00   0.00000000000000E+00   7.02897618617189E-06
      9.06862779426723E-07   7.93583896559861E-06   4.92086581012946E-29   0.00000000000000E+00   0.00000000000000E+00
      0.00000000000000E+00   0.00000000000000E+00  -5.30703825755522E-13  -7.93583843489476E-06  -7.93583896559858E-06
      5.80633133938579E-31
      5.50000000000000E-01
      8.25000000000000E+00   8.25000000000000E+00   0.00000000000000E+00   0.00000000000000E+00   1.23693687851205E-05
      1.43061363176485E-06   1.37999824168853E-05  -3.21767528390962E-29   0.00000000000000E+00   0.00000000000000E+00
      0.00000000000000E+00   0.00000000000000E+00  -5.87627226214620E-13  -1.37999818292581E-05  -1.37999824168853E-05
     -5.80633133938579E-31
      5.60000000000000E-01
      8.40000000000000E+00   8.40000000000000E+00   0.00000000000000E+00   0.00000000000000E+00   2.08479408861367E-05
      2.16835924282985E-06   2.30163001289665E-05   1.01780149769983E-27   0.00000000000000E+00   0.00000000000000E+00
      0.00000000000000E+00   0.00000000000000E+00  -6.84254713460391E-13  -2.30162994447118E-05  -2.30163001289665E-05
      1.93544377979526E-31
      5.70000000000000E-01
      8.55000000000000E+00   8.55000000000000E+00   0.00000000000000E+00   0.00000000000000E+00   3.35209302083027E-05
      3.15017771379494E-06   3.66711079220977E-05   9.34020975081946E-28   0.00000000000000E+00   0.00000000000000E+00
      0.00000000000000E+00   0.00000000000000E+00  -8.46749392597005E-13  -3.66711070753483E-05  -3.66711079220977E-05
      0.00000000000000E+00
      5.80000000000000E-01
      8.70000000000000E+00   8.70000000000000E+00   0.00000000000000E+00   0.00000000000000E+00   5.13379156331298E-05
      4.38528605809126E-06   5.57232016912211E-05  -2.06681202634887E-28   0.00000000000000E+00   0.00000000000000E+00
      0.00000000000000E+00   0.00000000000000E+00  -1.11822150107464E-12  -5.57232005729995E-05  -5.57232016912210E-05
      5.80633133938579E-31
      5.90000000000000E-01
      8.85000000000000E+00   8.85000000000000E+00   0.00000000000000E+00   0.00000000000000E+00   7.49966178950856E-05
      5.86132655210896E-06   8.08579444471946E-05  -1.38226975448253E-28   0.00000000000000E+00   0.00000000000000E+00
      0.00000000000000E+00   0.00000000000000E+00  -1.56798639707689E-12  -8.08579428792082E-05  -8.08579444471946E-05
      0.00000000000000E+00
      6.00000000000000E-01
      9.00000000000001E+00   9.00000000000001E+00   0.00000000000000E+00   0.00000000000000E+00   1.04901346749756E-04
      7.55045301100538E-06   1.12451799760761E-04  -1.94873483512683E-28   0.00000000000000E+00   0.00000000000000E+00
      0.00000000000000E+00   0.00000000000000E+00  -2.30060057806890E-12  -1.12451797460161E-04  -1.12451799760761E-04
      3.87088755959053E-31
      6.10000000000000E-01
      9.15000000000001E+00   9.15000000000001E+00   0.00000000000000E+00   0.00000000000000E+00   1.41209604385104E-04
      9.41735835895297E-06   1.50626962744057E-04   7.40670141480400E-28   0.00000000000000E+00   0.00000000000000E+00
      0.00000000000000E+00   0.00000000000000E+00  -3.45843901668556E-12  -1.50626959285618E-04  -1.50626962744057E-04
     -1.93544377979526E-31
      6.20000000000000E-01
      9.30000000000000E+00   9.30000000000000E+00   0.00000000000000E+00   0.00000000000000E+00   1.83912556006091E-04
      1.14256075797698E-05   1.95338163585861E-04  -9.89495632420328E-30   0.00000000000000E+00   0.00000000000000E+00
      0.00000000000000E+00   0.00000000000000E+00  -5.21048867506660E-12  -1.95338158375373E-04  -1.95338163585861E-04
     -3.87088755959053E-31
      6.30000000000000E-01
      9.45000000000000E+00   9.45000000000000E+00   0.00000000000000E+00   0.00000000000000E+00   2.32903085350357E-04
      1.35410675574870E-05   2.46444152907844E-04  -9.25311478072868E-28   0.00000000000000E+00   0.00000000000000E+00
      0.00000000000000E+00   0.00000000000000E+00  -7.72398399455293E-12  -2.46444145183860E-04  -2.46444152907844E-04
      1.93544377979526E-31
      6.40000000000000E-01
      9.60000000000000E+00   9.60000000000000E+00   0.00000000000000E+00   0.00000000000000E+00   2.88018081316072E-04
      1.57332035469712E-05   3.03751284863043E-04  -3.36186584550437E-28   0.00000000000000E+00   0.00000000000000E+00
      0.00000000000000E+00   0.00000000000000E+00  -1.11232633177953E-11  -3.03751273739779E-04  -3.03751284863043E-04
      1.93544377979526E-31
      6.50000000000000E-01
      9.75000000000001E+00   9.75000000000001E+00   0.00000000000000E+00   0.00000000000000E+00   3.49060765265107E-04
      1.79753570269804E-05   3.67036122292087E-04  -1.51003323699626E-27   0.00000000000000E+00   0.00000000000000E+00
      0.00000000000000E+00   0.00000000000000E+00  -1.54515925019539E-11  -3.67036106840496E-04  -3.67036122292088E-04
      0.00000000000000E+00
      6.60000000000000E-01
      9.90000000000001E+00   9.90000000000001E+00   0.00000000000000E+00   0.00000000000000E+00   4.15812065785744E-04
      2.02446357222578E-05   4.36056701508002E-04   2.56494686917367E-28   0.00000000000000E+00   0.00000000000000E+00
      0.00000000000000E+00   0.00000000000000E+00  -2.06519530966017E-11  -4.36056680856049E-04  -4.36056701508002E-04
      3.87088755959053E-31
      6.70000000000000E-01
      1.00500000000000E+01   1.00500000000000E+01   0.00000000000000E+00   0.00000000000000E+00   4.88037713920838E-04
      2.25216868083021E-05   5.10559400729140E-04  -4.70264452395754E-28   0.00000000000000E+00   0.00000000000000E+00
      0.00000000000000E+00   0.00000000000000E+00  -2.65790141435109E-11  -5.10559374150126E-04  -5.10559400729140E-04
      3.87088755959053E-31
      6.80000000000000E-01
      1.02000000000000E+01   1.02000000000000E+01   0.00000000000000E+00   0.00000000000000E+00   5.65493500969286E-04
      2.47904456255207E-05   5.90283946594807E-04  -1.09410636871826E-27   0.00000000000000E+00   0.00000000000000E+00
      0.00000000000000E+00   0.00000000000000E+00  -3.30387786556686E-11  -5.90283913556028E-04  -5.90283946594806E-04
     -1.93544377979526E-31
      6.90000000000000E-01