DF-ISE text

Info {
  version   = 1.0
  type      = xyplot
  datasets  = [
    "time"
    "Cathode OuterVoltage" "Cathode InnerVoltage" "Cathode QuasiFermiPotential" "Cathode DisplacementCurrent" "Cathode eCurrent"
    "Cathode hCurrent" "Cathode TotalCurrent" "Cathode Charge" "Anode OuterVoltage" "Anode InnerVoltage"
    "Anode QuasiFermiPotential" "Anode DisplacementCurrent" "Anode eCurrent" "Anode hCurrent" "Anode TotalCurrent"
    "Anode Charge" ]
  functions = [
    Time
    OuterVoltage InnerVoltage QuasiFermiPotential DisplacementCurrent eCurrent
    hCurrent TotalCurrent Charge OuterVoltage InnerVoltage
    QuasiFermiPotential DisplacementCurrent eCurrent hCurrent TotalCurrent
    Charge ]
}

Data {
      0.00000000000000E+00
      0.00000000000000E+00   0.00000000000000E+00   0.00000000000000E+00   0.00000000000000E+00   1.01950582317078E-20
      2.91278204293399E-21   1.31078402746418E-20  -1.97415265539117E-29   0.00000000000000E+00   0.00000000000000E+00
      0.00000000000000E+00   0.00000000000000E+00   7.70833511572085E-25  -1.82467689927852E-19  -1.82466919094340E-19
      3.87088755959053E-31
      0.00000000000000E+00
      0.00000000000000E+00   0.00000000000000E+00   0.00000000000000E+00   0.00000000000000E+00  -1.31224260497779E-22
      2.88581152215517E-21   2.75458726165739E-21  -5.74826802599193E-29   0.00000000000000E+00   0.00000000000000E+00
      0.00000000000000E+00   0.00000000000000E+00  -1.14019611921992E-25  -1.82467718375894E-19  -1.82467832395506E-19
     -7.74177511918105E-31
      0.00000000000000E+00
      0.00000000000000E+00   0.00000000000000E+00   0.00000000000000E+00   0.00000000000000E+00  -5.55309715602112E-23
     -5.19025919306240E-24  -6.07212307532736E-23  -6.32890115993051E-29   0.00000000000000E+00   0.00000000000000E+00
      0.00000000000000E+00   0.00000000000000E+00  -1.23378404247249E-25   3.48677584393732E-21   3.48665246553307E-21
      0.00000000000000E+00
      1.00000000000000E-02
      1.50000000000000E-01   1.50000000000000E-01   0.00000000000000E+00   0.00000000000000E+00   2.23952357977291E-10
      3.28737174888369E-12   2.27239729726175E-10  -6.79340766708137E-29   0.00000000000000E+00   0.00000000000000E+00
      0.00000000000000E+00   0.00000000000000E+00  -4.01997294268420E-13  -2.26837732427804E-10  -2.27239729722072E-10
      3.87088755959053E-31
      2.00000000000000E-02
      3.00000000000000E-01   3.00000000000000E-01   0.00000000000000E+00   0.00000000000000E+00   3.86020061919825E-10
      5.10822381660896E-12   3.91128285736434E-10  -1.20965236237204E-28   0.00000000000000E+00   0.00000000000000E+00
      0.00000000000000E+00   0.00000000000000E+00  -4.05676985826927E-13  -3.90722608731573E-10  -3.91128285717400E-10
      0.00000000000000E+00
      3.00000000000000E-02
      4.50000000000000E-01   4.50000000000000E-01   0.00000000000000E+00   0.00000000000000E+00   5.43072736878508E-10
      6.84853096504711E-12   5.49921267843555E-10  -3.65798874381305E-29   0.00000000000000E+00   0.00000000000000E+00
      0.00000000000000E+00   0.00000000000000E+00  -4.07685888278704E-13  -5.49513581942755E-10  -5.49921267831034E-10
      0.00000000000000E+00
      4.00000000000000E-02
      6.00000000000000E-01   6.00000000000000E-01   0.00000000000000E+00   0.00000000000000E+00   6.88270732031142E-10
      8.44018078129984E-12   6.96710912812442E-10  -5.57407808581036E-29   0.00000000000000E+00   0.00000000000000E+00
      0.00000000000000E+00   0.00000000000000E+00  -4.09468551609526E-13  -6.96301444263648E-10  -6.96710912815257E-10
     -3.87088755959053E-31
      5.00000000000000E-02
      7.50000000000000E-01   7.50000000000000E-01   0.00000000000000E+00   0.00000000000000E+00   8.03565120053112E-10
      9.69965668248244E-12   8.13264776735594E-10   1.07030041022678E-28   0.00000000000000E+00   0.00000000000000E+00
      0.00000000000000E+00   0.00000000000000E+00  -4.11123101370063E-13  -8.12853653614304E-10  -8.13264776715674E-10
     -5.80633133938579E-31
      6.00000000000000E-02
      9.00000000000000E-01   9.00000000000000E-01   0.00000000000000E+00   0.00000000000000E+00   9.21588856381316E-10
      1.09750810190646E-11   9.32563937400380E-10   6.87082541827318E-29   0.00000000000000E+00   0.00000000000000E+00
      0.00000000000000E+00   0.00000000000000E+00  -4.12678007023290E-13  -9.32151259382296E-10  -9.32563937389319E-10
      1.93544377979526E-31
      7.00000000000000E-02
      1.05000000000000E+00   1.05000000000000E+00   0.00000000000000E+00   0.00000000000000E+00   1.04562298130848E-09
      1.23024051130013E-11   1.05792538642148E-09   1.25029668174774E-28   0.00000000000000E+00   0.00000000000000E+00
      0.00000000000000E+00   0.00000000000000E+00  -4.14131490418663E-13  -1.05751125492098E-09  -1.05792538641140E-09
      3.87088755959053E-31
      8.00000000000000E-02
      1.20000000000000E+00   1.20000000000000E+00   0.00000000000000E+00   0.00000000000000E+00   1.16162545547536E-09
      1.35412352923619E-11   1.17516669076772E-09   4.78054613609430E-29   0.00000000000000E+00   0.00000000000000E+00
      0.00000000000000E+00   0.00000000000000E+00  -4.15471699139671E-13  -1.17475121906632E-09  -1.17516669076546E-09
      1.93544377979526E-31
      9.00000000000000E-02
      1.35000000000000E+00   1.35000000000000E+00   0.00000000000000E+00   0.00000000000000E+00   1.31308313441438E-09
      1.51311015773984E-11   1.32821423599178E-09  -1.91608934199731E-28   0.00000000000000E+00   0.00000000000000E+00
      0.00000000000000E+00   0.00000000000000E+00  -4.16691765984639E-13  -1.32779754423100E-09  -1.32821423599699E-09
     -1.93544377979526E-31
      1.00000000000000E-01
      1.50000000000000E+00   1.50000000000000E+00   0.00000000000000E+00   0.00000000000000E+00   1.48076904490819E-09
      1.68725116013898E-11   1.49764155650958E-09  -5.59343252360831E-29   0.00000000000000E+00   0.00000000000000E+00
      0.00000000000000E+00   0.00000000000000E+00  -4.17806334160254E-13  -1.49722375017687E-09  -1.49764155651103E-09
      3.87088755959053E-31
      1.10000000000000E-01
      1.65000000000000E+00   1.65000000000000E+00   0.00000000000000E+00   0.00000000000000E+00   1.62609309894131E-09
      1.83844465893076E-11   1.64447754553061E-09   6.48373666231413E-29   0.00000000000000E+00   0.00000000000000E+00
      0.00000000000000E+00   0.00000000000000E+00  -4.18841641852955E-13  -1.64405870387920E-09  -1.64447754552106E-09
     -3.87088755959053E-31
      1.20000000000000E-01
      1.80000000000000E+00   1.80000000000000E+00   0.00000000000000E+00   0.00000000000000E+00   1.72505919140978E-09
      1.94394462215420E-11   1.74449863763132E-09   5.05150826526564E-29   0.00000000000000E+00   0.00000000000000E+00
      0.00000000000000E+00   0.00000000000000E+00  -4.19818887545510E-13  -1.74407881873877E-09  -1.74449863762632E-09
      1.93544377979526E-31
      1.30000000000000E-01
      1.95000000000000E+00   1.95000000000000E+00   0.00000000000000E+00   0.00000000000000E+00   1.77530832477626E-09
      2.00208391652702E-11   1.79532916394153E-09  -1.83867159080550E-29   0.00000000000000E+00   0.00000000000000E+00
      0.00000000000000E+00   0.00000000000000E+00  -4.20749266089135E-13  -1.79490841470962E-09  -1.79532916397570E-09
     -5.80633133938579E-31
      1.40000000000000E-01
      2.10000000000000E+00   2.10000000000000E+00   0.00000000000000E+00   0.00000000000000E+00   1.80792006460062E-09
      2.04328647952303E-11   1.82835292939585E-09  -7.10307867184861E-29   0.00000000000000E+00   0.00000000000000E+00
      0.00000000000000E+00   0.00000000000000E+00  -4.21630312731229E-13  -1.82793129906965E-09  -1.82835292938238E-09
     -1.93544377979526E-31
      1.50000000000000E-01
      2.25000000000000E+00   2.25000000000000E+00   0.00000000000000E+00   0.00000000000000E+00   1.84220911478915E-09
      2.08652041038814E-11   1.86307431889303E-09  -6.44502778671822E-29   0.00000000000000E+00   0.00000000000000E+00
      0.00000000000000E+00   0.00000000000000E+00  -4.22461304156753E-13  -1.86265185759609E-09  -1.86307431890025E-09
     -5.80633133938579E-31
      1.60000000000000E-01
      2.40000000000000E+00   2.40000000000000E+00   0.00000000000000E+00   0.00000000000000E+00   1.88824746295004E-09
      2.14186008663818E-11   1.90966606381643E-09  -4.27733075334753E-29   0.00000000000000E+00   0.00000000000000E+00
      0.00000000000000E+00   0.00000000000000E+00  -4.23270165951163E-13  -1.90924279362559E-09  -1.90966606379154E-09
      1.93544377979526E-31
      1.70000000000000E-01
      2.55000000000000E+00   2.55000000000000E+00   0.00000000000000E+00   0.00000000000000E+00   1.96371643498240E-09
      2.22666280075552E-11   1.98598306298996E-09  -9.67721889897631E-31   0.00000000000000E+00   0.00000000000000E+00
      0.00000000000000E+00   0.00000000000000E+00  -4.24071709395308E-13  -1.98555899130147E-09  -1.98598306301087E-09
      1.93544377979526E-31
      1.80000000000000E-01
      2.70000000000000E+00   2.70000000000000E+00   0.00000000000000E+00   0.00000000000000E+00   2.09560781436878E-09
      2.36688667061208E-11   2.11927668107490E-09   1.55029046761601E-28   0.00000000000000E+00   0.00000000000000E+00
      0.00000000000000E+00   0.00000000000000E+00  -4.24861990486428E-13  -2.11885181909332E-09  -2.11927668108380E-09
      1.93544377979526E-31
      1.90000000000000E-01
      2.85000000000000E+00   2.85000000000000E+00   0.00000000000000E+00   0.00000000000000E+00   2.28886217227201E-09
      2.56667681800921E-11   2.31452894045210E-09   2.03221596878503E-29   0.00000000000000E+00   0.00000000000000E+00
      0.00000000000000E+00   0.00000000000000E+00  -4.25639825778918E-13  -2.31410330061398E-09  -2.31452894043976E-09
     -5.80633133938579E-31
      2.00000000000000E-01
      3.00000000000000E+00   3.00000000000000E+00   0.00000000000000E+00   0.00000000000000E+00   2.50230876125532E-09
      2.78665299521710E-11   2.53017529120749E-09   1.41287395925054E-29   0.00000000000000E+00   0.00000000000000E+00
      0.00000000000000E+00   0.00000000000000E+00  -4.26407303949695E-13  -2.52974888391444E-09  -2.53017529121839E-09
      5.80633133938579E-31
      2.10000000000000E-01
      3.15000000000000E+00   3.15000000000000E+00   0.00000000000000E+00   0.00000000000000E+00   2.70689145039306E-09
      3.00035194622739E-11   2.73689496985533E-09   9.52238339659269E-29   0.00000000000000E+00   0.00000000000000E+00
      0.00000000000000E+00   0.00000000000000E+00  -4.27163867997786E-13  -2.73646780597837E-09  -2.73689496984637E-09
      5.80633133938579E-31
      2.20000000000000E-01
      3.30000000000000E+00   3.30000000000000E+00   0.00000000000000E+00   0.00000000000000E+00   2.88999468794497E-09
      3.19747823203399E-11   2.92196947026531E-09  -1.81931715300755E-29   0.00000000000000E+00   0.00000000000000E+00
      0.00000000000000E+00   0.00000000000000E+00  -4.27900137909989E-13  -2.92154157014103E-09  -2.92196947027894E-09
      1.93544377979526E-31
      2.30000000000000E-01
      3.45000000000000E+00   3.45000000000000E+00   0.00000000000000E+00   0.00000000000000E+00   3.03222265902401E-09
      3.36167069278474E-11   3.06583936595186E-09  -7.45145855221176E-29   0.00000000000000E+00   0.00000000000000E+00
      0.00000000000000E+00   0.00000000000000E+00  -4.28592089544794E-13  -3.06541077386237E-09  -3.06583936595192E-09
      1.93544377979526E-31
      2.40000000000000E-01
      3.60000000000000E+00   3.60000000000000E+00   0.00000000000000E+00   0.00000000000000E+00   3.14099734966371E-09
      3.50085124374628E-11   3.17600586210117E-09  -1.54835502383621E-30   0.00000000000000E+00   0.00000000000000E+00
      0.00000000000000E+00   0.00000000000000E+00  -4.29213437619620E-13  -3.17557664864150E-09  -3.17600586207912E-09
     -9.67721889897631E-31
      2.50000000000000E-01
      3.75000000000000E+00   3.75000000000000E+00   0.00000000000000E+00   0.00000000000000E+00   3.23700332097487E-09
      3.63456024074134E-11   3.27334892338228E-09   1.41287395925054E-29   0.00000000000000E+00   0.00000000000000E+00
      0.00000000000000E+00   0.00000000000000E+00  -4.29775710114905E-13  -3.27291914764838E-09  -3.27334892335850E-09
      1.93544377979526E-31
      2.60000000000000E-01
      3.90000000000000E+00   3.90000000000000E+00   0.00000000000000E+00   0.00000000000000E+00   3.33431467392903E-09
      3.77631594043266E-11   3.37207783333335E-09  -2.13866537667377E-28   0.00000000000000E+00   0.00000000000000E+00
      0.00000000000000E+00   0.00000000000000E+00  -4.30291809936503E-13  -3.37164754150886E-09  -3.37207783331880E-09
     -3.87088755959053E-31
      2.70000000000000E-01
      4.05000000000000E+00   4.05000000000000E+00   0.00000000000000E+00   0.00000000000000E+00   3.44204793681718E-09
      3.93569856821135E-11   3.48140492249930E-09   2.40575661828551E-28   0.00000000000000E+00   0.00000000000000E+00
      0.00000000000000E+00   0.00000000000000E+00  -4.30735043096090E-13  -3.48097418742906E-09  -3.48140492247216E-09
     -1.93544377979526E-31
      2.80000000000000E-01
      4.20000000000000E+00   4.20000000000000E+00   0.00000000000000E+00   0.00000000000000E+00   3.56816926783771E-09
      4.12222429361976E-11   3.60939151077390E-09   1.55803224273519E-28   0.00000000000000E+00   0.00000000000000E+00
      0.00000000000000E+00   0.00000000000000E+00  -4.31112152987673E-13  -3.60896039862503E-09  -3.60939151077802E-09
     -1.93544377979526E-31
      2.90000000000000E-01
      4.35000000000000E+00   4.35000000000000E+00   0.00000000000000E+00   0.00000000000000E+00   3.72500793456233E-09
      4.35074009349526E-11   3.76851533549728E-09   1.62577277502802E-29   0.00000000000000E+00   0.00000000000000E+00
      0.00000000000000E+00   0.00000000000000E+00  -4.31457103923449E-13  -3.76808387836744E-09  -3.76851533547137E-09
     -1.93544377979526E-31
      3.00000000000000E-01
      4.50000000000000E+00   4.50000000000000E+00   0.00000000000000E+00   0.00000000000000E+00   3.93237276648812E-09
      4.64480609540942E-11   3.97882082744221E-09  -1.74383484559553E-28   0.00000000000000E+00   0.00000000000000E+00
      0.00000000000000E+00   0.00000000000000E+00  -4.31766364682391E-13  -3.97838906108448E-09  -3.97882082744916E-09
      5.80633133938579E-31
      3.10000000000000E-01
      4.65000000000000E+00   4.65000000000000E+00   0.00000000000000E+00   0.00000000000000E+00   4.20432281909813E-09
      5.02542671152589E-11   4.25457708621339E-09  -3.67734318161100E-30   0.00000000000000E+00   0.00000000000000E+00
      0.00000000000000E+00   0.00000000000000E+00  -4.32022646265020E-13  -4.25414506354844E-09  -4.25457708619471E-09
      0.00000000000000E+00
      3.20000000000000E-01
      4.80000000000000E+00   4.80000000000000E+00   0.00000000000000E+00   0.00000000000000E+00   4.52823422829231E-09
      5.49349558239472E-11   4.58316918411625E-09  -3.25928732517522E-28   0.00000000000000E+00   0.00000000000000E+00
      0.00000000000000E+00   0.00000000000000E+00  -4.32212279639847E-13  -4.58273697182668E-09  -4.58316918410632E-09
     -3.87088755959053E-31
      3.30000000000000E-01
      4.95000000000000E+00   4.95000000000000E+00   0.00000000000000E+00   0.00000000000000E+00   4.88760215568515E-09
      6.05356639388410E-11   4.94813781962399E-09  -8.16757275073601E-29   0.00000000000000E+00   0.00000000000000E+00
      0.00000000000000E+00   0.00000000000000E+00  -4.32315512513256E-13  -4.94770550409649E-09  -4.94813781960900E-09
      1.93544377979526E-31
      3.40000000000000E-01
      5.10000000000000E+00   5.10000000000000E+00   0.00000000000000E+00   0.00000000000000E+00   5.29785674938332E-09
      6.75173083488525E-11   5.36537405773217E-09   2.89155300701412E-28   0.00000000000000E+00   0.00000000000000E+00
      0.00000000000000E+00   0.00000000000000E+00  -4.32309576847064E-13  -5.36494174816949E-09  -5.36537405774634E-09
      5.80633133938579E-31
      3.50000000000000E-01
      5.25000000000000E+00   5.25000000000000E+00   0.00000000000000E+00   0.00000000000000E+00   5.76960341335856E-09
      7.65092894888995E-11   5.84611270284746E-09   1.13029916740043E-28   0.00000000000000E+00   0.00000000000000E+00
      0.00000000000000E+00   0.00000000000000E+00  -4.32165452674850E-13  -5.84568053738270E-09  -5.84611270283537E-09
     -1.93544377979526E-31
      3.60000000000000E-01
      5.40000000000000E+00   5.40000000000000E+00   0.00000000000000E+00   0.00000000000000E+00   6.26550863693207E-09
      8.80705917661038E-11   6.35357922869817E-09   4.75151447939737E-28   0.00000000000000E+00   0.00000000000000E+00
      0.00000000000000E+00   0.00000000000000E+00  -4.31818862264073E-13  -6.35314740986229E-09  -6.35357922872455E-09
     -5.80633133938579E-31
      3.70000000000000E-01
      5.55000000000000E+00   5.55000000000000E+00   0.00000000000000E+00   0.00000000000000E+00   6.74532540465310E-09
      1.03427232786370E-10   6.84875263743947E-09  -4.52893844472091E-29   0.00000000000000E+00   0.00000000000000E+00
      0.00000000000000E+00   0.00000000000000E+00  -4.31162913357065E-13  -6.84832147452274E-09  -6.84875263743610E-09
     -1.93544377979526E-31
      3.80000000000000E-01
      5.70000000000000E+00   5.70000000000000E+00   0.00000000000000E+00   0.00000000000000E+00   7.21688196660555E-09
      1.25706277786692E-10   7.34258824439224E-09   2.53930223909138E-28   0.00000000000000E+00   0.00000000000000E+00
      0.00000000000000E+00   0.00000000000000E+00  -4.30149489110851E-13  -7.34215809489433E-09  -7.34258824438344E-09
      0.00000000000000E+00
      3.90000000000000E-01
      5.85000000000000E+00   5.85000000000000E+00   0.00000000000000E+00   0.00000000000000E+00   7.71689294277182E-09
      1.61516942375226E-10   7.87840988514704E-09  -1.27158656332549E-28   0.00000000000000E+00   0.00000000000000E+00
      0.00000000000000E+00   0.00000000000000E+00  -4.28898122391838E-13  -7.87798098699131E-09  -7.87840988511371E-09
     -1.93544377979526E-31
      4.00000000000000E-01
      6.00000000000000E+00   6.00000000000000E+00   0.00000000000000E+00   0.00000000000000E+00   8.29740429995026E-09
      2.24825410179187E-10   8.52222971012945E-09   3.78572803327953E-28   0.00000000000000E+00   0.00000000000000E+00
      0.00000000000000E+00   0.00000000000000E+00  -4.27535753475289E-13  -8.52180217438224E-09  -8.52222971013572E-09
      0.00000000000000E+00
      4.10000000000000E-01
      6.15000000000000E+00   6.15000000000000E+00   0.00000000000000E+00   0.00000000000000E+00   9.05272239578830E-09
      3.46036387091289E-10   9.39875878287958E-09  -4.08185093158821E-28   0.00000000000000E+00   0.00000000000000E+00
      0.00000000000000E+00   0.00000000000000E+00  -4.26058812209010E-13  -9.39833272407691E-09  -9.39875878288912E-09
      1.93544377979526E-31
      4.20000000000000E-01
      6.30000000000000E+00   6.30000000000000E+00   0.00000000000000E+00   0.00000000000000E+00   1.01892507707262E-08
      5.90621579245521E-10   1.07798723499717E-08  -3.23219111225809E-29   0.00000000000000E+00   0.00000000000000E+00
      0.00000000000000E+00   0.00000000000000E+00  -4.24443211738579E-13  -1.07794479067626E-08  -1.07798723499744E-08
      7.74177511918105E-31
      4.30000000000000E-01
      6.45000000000000E+00   6.45000000000000E+00   0.00000000000000E+00   0.00000000000000E+00   1.21632708476572E-08
      1.09415613274404E-09   1.32574269804012E-08   5.52375654753568E-28   0.00000000000000E+00   0.00000000000000E+00
      0.00000000000000E+00   0.00000000000000E+00  -4.22763103461733E-13  -1.32570042172866E-08  -1.32574269803901E-08
     -5.80633133938579E-31
      4.40000000000000E-01
      6.60000000000000E+00   6.60000000000000E+00   0.00000000000000E+00   0.00000000000000E+00   1.59146850216441E-08
      2.12582774953878E-09   1.80405127711828E-08  -2.99993785868266E-29   0.00000000000000E+00   0.00000000000000E+00
      0.00000000000000E+00   0.00000000000000E+00  -4.21267115068571E-13  -1.80400915040452E-08  -1.80405127711602E-08
     -5.80633133938579E-31
      4.50000000000000E-01
      6.75000000000000E+00   6.75000000000000E+00   0.00000000000000E+00   0.00000000000000E+00   2.33561412559990E-08
      4.20358999705641E-09   2.75597312530554E-08   2.43865916254203E-28   0.00000000000000E+00   0.00000000000000E+00
      0.00000000000000E+00   0.00000000000000E+00  -4.20424446320624E-13  -2.75593108286105E-08  -2.75597312530569E-08
      1.93544377979526E-31
      4.60000000000000E-01
      6.90000000000000E+00   6.90000000000000E+00   0.00000000000000E+00   0.00000000000000E+00   3.85927927366215E-08
      8.29977323462567E-09   4.68925659712472E-08  -3.92120909786520E-28   0.00000000000000E+00   0.00000000000000E+00
      0.00000000000000E+00   0.00000000000000E+00  -4.20860957356163E-13  -4.68921451102958E-08  -4.68925659712532E-08
      0.00000000000000E+00
      4.70000000000000E-01
      7.05000000000000E+00   7.05000000000000E+00   0.00000000000000E+00   0.00000000000000E+00   7.02987773169778E-08
      1.61895280625436E-08   8.64883053795214E-08  -4.45152069352910E-28   0.00000000000000E+00   0.00000000000000E+00
      0.00000000000000E+00   0.00000000000000E+00  -4.22355649725264E-13  -8.64878830238672E-08  -8.64883053795169E-08
      5.80633133938579E-31
      4.80000000000000E-01
      7.20000000000000E+00   7.20000000000000E+00   0.00000000000000E+00   0.00000000000000E+00   1.36025015982521E-07
      3.10168987290169E-08   1.67041914711537E-07  -1.04881698427105E-27   0.00000000000000E+00   0.00000000000000E+00
      0.00000000000000E+00   0.00000000000000E+00  -4.24146398246455E-13  -1.67041490565142E-07  -1.67041914711540E-07
      0.00000000000000E+00
      4.90000000000000E-01
      7.35000000000000E+00   7.35000000000000E+00   0.00000000000000E+00   0.00000000000000E+00   2.70169083833396E-07
      5.81755505920728E-08   3.28344634425469E-07   1.03062381274098E-28   0.00000000000000E+00   0.00000000000000E+00
      0.00000000000000E+00   0.00000000000000E+00  -4.26769009128566E-13  -3.28344207656449E-07  -3.28344634425459E-07
      0.00000000000000E+00
      5.00000000000000E-01
      7.50000000000000E+00   7.50000000000000E+00   0.00000000000000E+00   0.00000000000000E+00   5.38146181646028E-07
      1.06595402577078E-07   6.44741584223106E-07  -8.29434431831260E-28   0.00000000000000E+00   0.00000000000000E+00
      0.00000000000000E+00   0.00000000000000E+00  -4.31672680258991E-13  -6.44741152550407E-07  -6.44741584223087E-07
      1.93544377979526E-31
      5.10000000000000E-01
      7.65000000000000E+00   7.65000000000000E+00   0.00000000000000E+00   0.00000000000000E+00   1.06014308137414E-06
      1.90464174882694E-07   1.25060725625683E-06   4.29281430358589E-28   0.00000000000000E+00   0.00000000000000E+00
      0.00000000000000E+00   0.00000000000000E+00  -4.41695447050300E-13  -1.25060681456139E-06  -1.25060725625684E-06
     -3.87088755959053E-31
      5.20000000000000E-01
      7.80000000000000E+00   7.80000000000000E+00   0.00000000000000E+00   0.00000000000000E+00   2.04795393274083E-06
      3.31220329314032E-07   2.37917426205486E-06  -2.78413587723549E-28   0.00000000000000E+00   0.00000000000000E+00
      0.00000000000000E+00   0.00000000000000E+00  -4.61942810817039E-13  -2.37917380011204E-06  -2.37917426205485E-06
      1.93544377979526E-31
      5.30000000000000E-01
      7.95000000000000E+00   7.95000000000000E+00   0.00000000000000E+00   0.00000000000000E+00   3.85551779240072E-06
      5.59227148816522E-07   4.41474494121724E-06   6.65405571493611E-28   0.00000000000000E+00   0.00000000000000E+00
      0.00000000000000E+00   0.00000000000000E+00  -5.00783855885711E-13  -4.41474444043337E-06  -4.41474494121723E-06
     -1.93544377979526E-31
      5.40000000000000E-01
      8.10000000000000E+00   8.10000000000000E+00   0.00000000000000E+00   0.00000000000000E+00   7.03423795713688E-06
      9.13857750244041E-07   7.94809570738092E-06  -3.86943597675568E-28   0.00000000000000E+00   0.00000000000000E+00
      0.00000000000000E+00   0.00000000000000E+00  -5.71518862184821E-13  -7.94809513586204E-06  -7.94809570738091E-06
      0.00000000000000E+00
      5.50000000000000E-01
      8.25000000000000E+00   8.25000000000000E+00   0.00000000000000E+00   0.00000000000000E+00   1.23662023009538E-05
      1.44016897131422E-06   1.38063712722680E-05   4.45006911069426E-28   0.00000000000000E+00   0.00000000000000E+00
      0.00000000000000E+00   0.00000000000000E+00  -6.94070232264109E-13  -1.38063705781978E-05  -1.38063712722680E-05
      3.87088755959053E-31
      5.60000000000000E-01
      8.40000000000000E+00   8.40000000000000E+00   0.00000000000000E+00   0.00000000000000E+00   2.08325261377756E-05
      2.18102290625279E-06   2.30135490440284E-05   2.35591894095578E-28   0.00000000000000E+00   0.00000000000000E+00
      0.00000000000000E+00   0.00000000000000E+00  -8.97411764008000E-13  -2.30135481466166E-05  -2.30135490440284E-05
      1.93544377979526E-31
      5.70000000000000E-01
      8.55000000000000E+00   8.55000000000000E+00   0.00000000000000E+00   0.00000000000000E+00   3.34893697474843E-05
      3.16645777615939E-06   3.66558275236437E-05  -1.41771256870003E-29   0.00000000000000E+00   0.00000000000000E+00
      0.00000000000000E+00   0.00000000000000E+00  -1.22243994936649E-12  -3.66558263012038E-05  -3.66558275236438E-05
      1.93544377979526E-31
      5.80000000000000E-01
      8.70000000000000E+00   8.70000000000000E+00   0.00000000000000E+00   0.00000000000000E+00   5.12868119892159E-05
      4.40561609948448E-06   5.56924280887003E-05   1.32285163044281E-27   0.00000000000000E+00   0.00000000000000E+00
      0.00000000000000E+00   0.00000000000000E+00  -1.72604959668645E-12  -5.56924263626508E-05  -5.56924280887004E-05
     -5.80633133938579E-31
      5.90000000000000E-01
      8.85000000000000E+00   8.85000000000000E+00   0.00000000000000E+00   0.00000000000000E+00   7.49234388026101E-05
      5.88604424449965E-06   8.08094830471097E-05   1.97633002964344E-28   0.00000000000000E+00   0.00000000000000E+00
      0.00000000000000E+00   0.00000000000000E+00  -2.48735260673759E-12  -8.08094805597572E-05  -8.08094830471099E-05
      0.00000000000000E+00
      6.00000000000000E-01
      9.00000000000001E+00   9.00000000000001E+00   0.00000000000000E+00   0.00000000000000E+00   1.04804580116935E-04
      7.57979372257202E-06   1.12384373839507E-04  -1.78288393591835E-28   0.00000000000000E+00   0.00000000000000E+00
      0.00000000000000E+00   0.00000000000000E+00  -3.61402498015990E-12  -1.12384370225482E-04  -1.12384373839507E-04
     -3.87088755959053E-31
      6.10000000000000E-01
      9.15000000000001E+00   9.15000000000001E+00   0.00000000000000E+00   0.00000000000000E+00   1.41088549227231E-04
      9.45145982527864E-06   1.50540009052509E-04   3.86000068832918E-29   0.00000000000000E+00   0.00000000000000E+00
      0.00000000000000E+00   0.00000000000000E+00  -5.24730643844412E-12  -1.50540003805203E-04  -1.50540009052509E-04
     -5.80633133938579E-31
      6.20000000000000E-01
      9.30000000000000E+00   9.30000000000000E+00   0.00000000000000E+00   0.00000000000000E+00   1.83767049354493E-04
      1.14645249660143E-05   1.95231574320508E-04   6.03894748866993E-28   0.00000000000000E+00   0.00000000000000E+00
      0.00000000000000E+00   0.00000000000000E+00  -7.55141257446897E-12  -1.95231566769095E-04  -1.95231574320507E-04
      5.80633133938579E-31
      6.30000000000000E-01
      9.45000000000000E+00   9.45000000000000E+00   0.00000000000000E+00   0.00000000000000E+00   2.32732850558485E-04
      1.35847924400439E-05   2.46317642998529E-04  -8.50675927314513E-28   0.00000000000000E+00   0.00000000000000E+00
      0.00000000000000E+00   0.00000000000000E+00  -1.06874081725496E-11  -2.46317632311121E-04  -2.46317642998529E-04
      3.87088755959053E-31
      6.40000000000000E-01
      9.60000000000000E+00   9.60000000000000E+00   0.00000000000000E+00   0.00000000000000E+00   2.87823135878444E-04
      1.57816761465175E-05   3.03604812024962E-04  -8.15136340908022E-28   0.00000000000000E+00   0.00000000000000E+00
      0.00000000000000E+00   0.00000000000000E+00  -1.47705564983883E-11  -3.03604797254405E-04  -3.03604812024962E-04
     -3.87088755959053E-31
      6.50000000000000E-01
      9.75000000000001E+00   9.75000000000001E+00   0.00000000000000E+00   0.00000000000000E+00   3.48841390684940E-04
      1.80284751123003E-05   3.66869865797241E-04  -9.44980425485037E-28   0.00000000000000E+00   0.00000000000000E+00
      0.00000000000000E+00   0.00000000000000E+00  -1.98364110317113E-11  -3.66869845960829E-04  -3.66869865797240E-04
      5.80633133938579E-31
      6.60000000000000E-01
      9.90000000000001E+00   9.90000000000001E+00   0.00000000000000E+00   0.00000000000000E+00   4.15568684742985E-04
      2.03022623459721E-05   4.35870947088957E-04   1.19126564646398E-27   0.00000000000000E+00   0.00000000000000E+00
      0.00000000000000E+00   0.00000000000000E+00  -2.58213672284996E-11  -4.35870921267590E-04  -4.35870947088958E-04
     -5.80633133938579E-31
      6.70000000000000E-01
      1.00500000000000E+01   1.00500000000000E+01   0.00000000000000E+00   0.00000000000000E+00   4.87770894472112E-04
      2.25836564067107E-05   5.10354550878823E-04  -1.22266822179116E-27   0.00000000000000E+00   0.00000000000000E+00
      0.00000000000000E+00   0.00000000000000E+00  -3.25740175957747E-11  -5.10354518304805E-04  -5.10354550878823E-04
     -5.80633133938579E-31
      6.80000000000000E-01
      1.02000000000000E+01   1.02000000000000E+01   0.00000000000000E+00   0.00000000000000E+00   5.65203954767631E-04
      2.48565696079655E-05   5.90060524375597E-04  -5.17586052811748E-28   0.00000000000000E+00   0.00000000000000E+00
      0.00000000000000E+00   0.00000000000000E+00  -3.98944693919913E-11  -5.90060484481127E-04  -5.90060524375596E-04
      0.00000000000000E+00
      6.90000000000000E-01