DF-ISE text

Info {
  version   = 1.0
  type      = xyplot
  datasets  = [
    "time"
    "ntype OuterVoltage" "ntype InnerVoltage" "ntype QuasiFermiPotential" "ntype DisplacementCurrent" "ntype eCurrent"
    "ntype hCurrent" "ntype TotalCurrent" "ntype Charge" "ptype OuterVoltage" "ptype InnerVoltage"
    "ptype QuasiFermiPotential" "ptype DisplacementCurrent" "ptype eCurrent" "ptype hCurrent" "ptype TotalCurrent"
    "ptype Charge" ]
  functions = [
    Time
    OuterVoltage InnerVoltage QuasiFermiPotential DisplacementCurrent eCurrent
    hCurrent TotalCurrent Charge OuterVoltage InnerVoltage
    QuasiFermiPotential DisplacementCurrent eCurrent hCurrent TotalCurrent
    Charge ]
}

Data {
      0.00000000000000E+00
      0.00000000000000E+00   0.00000000000000E+00   0.00000000000000E+00   0.00000000000000E+00   8.02033282319802E-11
     -8.02033282319836E-11  -3.37528498695747E-24  -1.01166648113261E-27   0.00000000000000E+00   0.00000000000000E+00
      0.00000000000000E+00   0.00000000000000E+00  -1.51328098395374E-24  -1.22097836486376E-18  -1.22097987814474E-18
      4.74183726049839E-30
      0.00000000000000E+00
      0.00000000000000E+00   0.00000000000000E+00   0.00000000000000E+00   0.00000000000000E+00   7.10144844160919E-11
     -6.06350382860476E-11   1.03794461300444E-11   4.01381601905250E-28   0.00000000000000E+00   0.00000000000000E+00
      0.00000000000000E+00   0.00000000000000E+00   2.79337855037687E-12  -2.16063207768862E-18   2.79337638974480E-12
     -6.67728104029366E-30
      0.00000000000000E+00
      0.00000000000000E+00   0.00000000000000E+00   0.00000000000000E+00   0.00000000000000E+00   7.00801524247914E-11
     -3.57080995208832E-11   3.43720529039083E-11   2.44498101369679E-28   0.00000000000000E+00   0.00000000000000E+00
      0.00000000000000E+00   0.00000000000000E+00   2.79337788333361E-12  -3.71654301407043E-11  -3.43720522573707E-11
      6.58050885130389E-30
      5.00000000000000E-03
      7.50000000000000E-02   7.50000000000000E-02   0.00000000000000E+00   0.00000000000000E+00   1.27922731951809E-09
      9.45640268234918E-11   1.37379134634158E-09   4.26905361255391E-28   0.00000000000000E+00   0.00000000000000E+00
      0.00000000000000E+00   0.00000000000000E+00   2.78315616731973E-12  -1.37657450217219E-09  -1.37379134600487E-09
     -1.11288017338228E-29
      1.33333333333333E-02
      2.00000000000000E-01   2.00000000000000E-01   0.00000000000000E+00   0.00000000000000E+00   2.59729060526154E-09
      2.22689254493533E-10   2.81997985975507E-09  -2.57781076601477E-28   0.00000000000000E+00   0.00000000000000E+00
      0.00000000000000E+00   0.00000000000000E+00   2.78155424086986E-12  -2.82276141392812E-09  -2.81997985968725E-09
     -1.74189940181574E-30
      2.33333333333333E-02
      3.50000000000000E-01   3.50000000000000E-01   0.00000000000000E+00   0.00000000000000E+00   4.01599499322456E-09
      3.61182048381928E-10   4.37717704160648E-09   1.04171897101847E-27   0.00000000000000E+00   0.00000000000000E+00
      0.00000000000000E+00   0.00000000000000E+00   2.78073486712382E-12  -4.37995777644345E-09  -4.37717704157633E-09
     -2.32253253575432E-30
      3.33333333333333E-02
      5.00000000000000E-01   5.00000000000000E-01   0.00000000000000E+00   0.00000000000000E+00   5.40527061650553E-09
      5.38970120749115E-10   5.94424073725464E-09  -7.98087424909478E-28   0.00000000000000E+00   0.00000000000000E+00
      0.00000000000000E+00   0.00000000000000E+00   2.78013151060007E-12  -5.94702086885737E-09  -5.94424073734677E-09
      2.77736182400620E-29
      4.33333333333333E-02
      6.50000000000000E-01   6.50000000000000E-01   0.00000000000000E+00   0.00000000000000E+00   6.75361297206900E-09
      9.86191063594920E-10   7.73980403566392E-09   9.60461707625220E-28   0.00000000000000E+00   0.00000000000000E+00
      0.00000000000000E+00   0.00000000000000E+00   2.77968243062830E-12  -7.74258371814955E-09  -7.73980403571892E-09
      5.22569820544721E-30
      5.33333333333333E-02
      8.00000000000000E-01   8.00000000000000E-01   0.00000000000000E+00   0.00000000000000E+00   8.03789136260301E-09
      2.99801451088611E-09   1.10359058734891E-08   2.00662879718995E-27   0.00000000000000E+00   0.00000000000000E+00
      0.00000000000000E+00   0.00000000000000E+00   2.77939869786901E-12  -1.10386852722167E-08  -1.10359058735188E-08
      1.79028549631062E-29
      6.33333333333333E-02
      9.50000000000000E-01   9.50000000000000E-01   0.00000000000000E+00   0.00000000000000E+00   9.24597172963644E-09
      1.31760727234179E-08   2.24220444530543E-08  -1.42561159862632E-27   0.00000000000000E+00   0.00000000000000E+00
      0.00000000000000E+00   0.00000000000000E+00   2.77954514025413E-12  -2.24248239981871E-08  -2.24220444530468E-08
     -1.47093727264440E-29
      7.33333333333333E-02
      1.10000000000000E+00   1.10000000000000E+00   0.00000000000000E+00   0.00000000000000E+00   1.11563450755562E-08
      6.17452283580451E-08   7.29015734336012E-08   5.07310055993398E-28   0.00000000000000E+00   0.00000000000000E+00
      0.00000000000000E+00   0.00000000000000E+00   2.78150690176015E-12  -7.29043549405037E-08  -7.29015734336019E-08
      9.29013014301726E-30
      8.33333333333333E-02
      1.25000000000000E+00   1.25000000000000E+00   0.00000000000000E+00   0.00000000000000E+00   1.77888511448466E-08
      2.66124413231901E-07   2.83913264376748E-07  -1.84644965549555E-27   0.00000000000000E+00   0.00000000000000E+00
      0.00000000000000E+00   0.00000000000000E+00   2.79076490625430E-12  -2.83916055141655E-07  -2.83913264376749E-07
     -1.33545620805873E-29
      9.33333333333333E-02
      1.40000000000000E+00   1.40000000000000E+00   0.00000000000000E+00   0.00000000000000E+00   4.75749119039013E-08
      1.00224499677017E-06   1.04981990867407E-06  -9.31904083447795E-28   0.00000000000000E+00   0.00000000000000E+00
      0.00000000000000E+00   0.00000000000000E+00   2.82503833664896E-12  -1.04982273371243E-06  -1.04981990867409E-06
      1.53867780493723E-29
      1.03333333333333E-01
      1.55000000000000E+00   1.55000000000000E+00   0.00000000000000E+00   0.00000000000000E+00   1.75553117531697E-07
      3.24678149179476E-06   3.42233460932645E-06   1.31632555594782E-27   0.00000000000000E+00   0.00000000000000E+00
      0.00000000000000E+00   0.00000000000000E+00   2.93070110234660E-12  -3.42233754002757E-06  -3.42233460932647E-06
      5.80633133938579E-30
      1.13333333333333E-01
      1.70000000000000E+00   1.70000000000000E+00   0.00000000000000E+00   0.00000000000000E+00   6.26409945907900E-07
      8.99488362655135E-06   9.62129357245925E-06  -2.33670966144132E-27   0.00000000000000E+00   0.00000000000000E+00
      0.00000000000000E+00   0.00000000000000E+00   3.20025361189221E-12  -9.62129677271286E-06  -9.62129357245925E-06
      5.70955915039602E-30
      1.23333333333333E-01
      1.85000000000000E+00   1.85000000000000E+00   0.00000000000000E+00   0.00000000000000E+00   1.90898316582989E-06
      2.12650685528309E-05   2.31740517186608E-05   1.85381643838240E-27   0.00000000000000E+00   0.00000000000000E+00
      0.00000000000000E+00   0.00000000000000E+00   3.75734350808220E-12  -2.31740554760043E-05  -2.31740517186608E-05
     -1.34513342695771E-29
      1.33333333333333E-01
      2.00000000000000E+00   2.00000000000000E+00   0.00000000000000E+00   0.00000000000000E+00   4.88983633829280E-06
      4.30908634026156E-05   4.79806997409084E-05  -3.16094258811438E-27   0.00000000000000E+00   0.00000000000000E+00
      0.00000000000000E+00   0.00000000000000E+00   4.67295948736633E-12  -4.79807044138679E-05  -4.79806997409084E-05
      2.06124762548195E-29
      1.43333333333333E-01
      2.15000000000000E+00   2.15000000000000E+00   0.00000000000000E+00   0.00000000000000E+00   1.06782323203909E-05
      7.59236741063127E-05   8.66019064267036E-05   8.20700741774934E-28   0.00000000000000E+00   0.00000000000000E+00
      0.00000000000000E+00   0.00000000000000E+00   5.86898588981688E-12  -8.66019122956896E-05  -8.66019064267037E-05
      1.03546242219047E-29
      1.53333333333333E-01
      2.30000000000000E+00   2.30000000000000E+00   0.00000000000000E+00   0.00000000000000E+00   2.03839953811518E-05
      1.18889882452428E-04   1.39273877833580E-04  -9.73818537803986E-28   0.00000000000000E+00   0.00000000000000E+00
      0.00000000000000E+00   0.00000000000000E+00   7.13296778406978E-12  -1.39273884966547E-04  -1.39273877833579E-04
      2.69994407281439E-29
      1.63333333333333E-01
      2.45000000000000E+00   2.45000000000000E+00   0.00000000000000E+00   0.00000000000000E+00   3.49487785731332E-05
      1.69404021548648E-04   2.04352800121782E-04  -2.82100608124059E-27   0.00000000000000E+00   0.00000000000000E+00
      0.00000000000000E+00   0.00000000000000E+00   8.23412013369858E-12  -2.04352808355902E-04  -2.04352800121782E-04
     -3.77411537060076E-30
      1.73333333333333E-01
      2.60000000000000E+00   2.60000000000000E+00   0.00000000000000E+00   0.00000000000000E+00   5.51258779842158E-05
      2.24295741407635E-04   2.79421619391851E-04   2.78493424779465E-27   0.00000000000000E+00   0.00000000000000E+00
      0.00000000000000E+00   0.00000000000000E+00   9.02742627824456E-12  -2.79421628419280E-04  -2.79421619391854E-04
      2.26446922236046E-29
      1.83333333333333E-01
      2.75000000000000E+00   2.75000000000000E+00   0.00000000000000E+00   0.00000000000000E+00   8.15368963928056E-05
      2.80646445186631E-04   3.62183341579436E-04  -2.77312804073790E-27   0.00000000000000E+00   0.00000000000000E+00
      0.00000000000000E+00   0.00000000000000E+00   9.48819913068749E-12  -3.62183351067636E-04  -3.62183341579437E-04
     -1.18062070567511E-29
      1.93333333333333E-01
      2.90000000000000E+00   2.90000000000000E+00   0.00000000000000E+00   0.00000000000000E+00   1.14707811872804E-04
      3.36029501507879E-04   4.50737313380684E-04   4.69369309647599E-28   0.00000000000000E+00   0.00000000000000E+00
      0.00000000000000E+00   0.00000000000000E+00   9.66460446081239E-12  -4.50737323045289E-04  -4.50737313380684E-04
     -2.73865294841030E-29
      2.03333333333333E-01
      3.05000000000000E+00   3.05000000000000E+00   0.00000000000000E+00   0.00000000000000E+00   1.55171144038033E-04
      3.88732364449084E-04   5.43903508487117E-04  -1.07124393906943E-27   0.00000000000000E+00   0.00000000000000E+00
      0.00000000000000E+00   0.00000000000000E+00   9.60668464939258E-12  -5.43903518093803E-04  -5.43903508487118E-04
      3.77411537060076E-30
      2.13333333333333E-01
      3.20000000000000E+00   3.20000000000000E+00   0.00000000000000E+00   0.00000000000000E+00   2.03560581653459E-04
      4.37852264722586E-04   6.41412846376045E-04  -2.54752787515551E-28   0.00000000000000E+00   0.00000000000000E+00
      0.00000000000000E+00   0.00000000000000E+00   9.33971905085264E-12  -6.41412855715765E-04  -6.41412846376046E-04
      6.87082541827318E-30
      2.23333333333333E-01
      3.35000000000000E+00   3.35000000000000E+00   0.00000000000000E+00   0.00000000000000E+00   2.60621453113890E-04
      4.83052911697931E-04   7.43674364811820E-04   1.19624941419696E-27   0.00000000000000E+00   0.00000000000000E+00
      0.00000000000000E+00   0.00000000000000E+00   8.87124877617180E-12  -7.43674373683073E-04  -7.43674364811825E-04
     -3.25154555005604E-29
      2.33333333333333E-01
      3.50000000000000E+00   3.50000000000000E+00   0.00000000000000E+00   0.00000000000000E+00   3.27203745855670E-04
      5.24341880148409E-04   8.51545626004078E-04  -6.80889121731973E-28   0.00000000000000E+00   0.00000000000000E+00
      0.00000000000000E+00   0.00000000000000E+00   8.19926135469898E-12  -8.51545634203337E-04  -8.51545626004076E-04
      3.87088755959053E-31
      2.43333333333333E-01
      3.65000000000000E+00   3.65000000000000E+00   0.00000000000000E+00   0.00000000000000E+00   4.04238500072973E-04
      5.61932536939788E-04   9.66171037012761E-04   7.64500293019129E-28   0.00000000000000E+00   0.00000000000000E+00
      0.00000000000000E+00   0.00000000000000E+00   7.31492862405456E-12  -9.66171044327689E-04  -9.66171037012760E-04
     -1.01610798439251E-29
      2.53333333333333E-01
      3.80000000000000E+00   3.80000000000000E+00   0.00000000000000E+00   0.00000000000000E+00   4.92717568993653E-04
      5.96144917801937E-04   1.08886248679559E-03   6.47260786058031E-28   0.00000000000000E+00   0.00000000000000E+00
      0.00000000000000E+00   0.00000000000000E+00   6.20338323433739E-12  -1.08886249299897E-03  -1.08886248679559E-03
     -4.83860944948816E-30
      2.63333333333333E-01
      3.95000000000000E+00   3.95000000000000E+00   0.00000000000000E+00   0.00000000000000E+00   5.93676705833613E-04
      6.27335048436939E-04   1.22101175427055E-03  -4.89916464674850E-27   0.00000000000000E+00   0.00000000000000E+00
      0.00000000000000E+00   0.00000000000000E+00   4.84440548616170E-12  -1.22101175911495E-03  -1.22101175427055E-03
     -1.29674733246283E-29
      2.73333333333333E-01
      4.10000000000000E+00   4.10000000000000E+00   0.00000000000000E+00   0.00000000000000E+00   7.08176687602233E-04
      6.55851485551122E-04   1.36402817315336E-03  -5.46092720383408E-27   0.00000000000000E+00   0.00000000000000E+00
      0.00000000000000E+00   0.00000000000000E+00   3.21329228299411E-12  -1.36402817636665E-03  -1.36402817315335E-03
      8.90304138705821E-30
      2.83333333333333E-01
      4.25000000000000E+00   4.25000000000000E+00   0.00000000000000E+00   0.00000000000000E+00   8.37282396525079E-04
      6.82012371196797E-04   1.51929476772188E-03   4.85576231998659E-27   0.00000000000000E+00   0.00000000000000E+00
      0.00000000000000E+00   0.00000000000000E+00   1.28180881318135E-12  -1.51929476900367E-03  -1.51929476772186E-03
     -2.03221596878503E-30
      2.93333333333333E-01
      4.40000000000000E+00   4.40000000000000E+00   0.00000000000000E+00   0.00000000000000E+00   9.82038701497098E-04
      7.06096066138365E-04   1.68813476763546E-03  -5.74812286770845E-27   0.00000000000000E+00   0.00000000000000E+00
      0.00000000000000E+00   0.00000000000000E+00  -9.80801348143589E-13  -1.68813476665465E-03  -1.68813476763545E-03
     -1.34513342695771E-29
      3.03333333333333E-01
      4.55000000000000E+00   4.55000000000000E+00   0.00000000000000E+00   0.00000000000000E+00   1.14344366753868E-03
      7.28339989823199E-04   1.87178365736188E-03   2.78626486539326E-27   0.00000000000000E+00   0.00000000000000E+00
      0.00000000000000E+00   0.00000000000000E+00  -3.60669685041797E-12  -1.87178365375519E-03  -1.87178365736188E-03
     -4.16120412655981E-30
      3.13333333333333E-01
      4.70000000000000E+00   4.70000000000000E+00   0.00000000000000E+00   0.00000000000000E+00   1.32242540861530E-03
      7.48943767420111E-04   2.07136917603541E-03   1.55512907706549E-28   0.00000000000000E+00   0.00000000000000E+00
      0.00000000000000E+00   0.00000000000000E+00  -6.62820450740309E-12  -2.07136916940721E-03  -2.07136917603541E-03
     -2.09995650107786E-29
      3.23333333333333E-01
      4.85000000000000E+00   4.85000000000000E+00   0.00000000000000E+00   0.00000000000000E+00   1.51982884299036E-03
      7.68074166641486E-04   2.28790300963185E-03  -2.14052824131182E-27   0.00000000000000E+00   0.00000000000000E+00
      0.00000000000000E+00   0.00000000000000E+00  -1.00765086686340E-11  -2.28790299955535E-03  -2.28790300963186E-03
     -4.74183726049839E-30
      3.33333333333333E-01
      5.00000000000000E+00   5.00000000000000E+00   0.00000000000000E+00   0.00000000000000E+00   1.73641184802712E-03
      7.85870479055717E-04   2.52228232708283E-03  -2.15712467172356E-27   0.00000000000000E+00   0.00000000000000E+00
      0.00000000000000E+00   0.00000000000000E+00  -1.39802748074659E-11  -2.52228231310258E-03  -2.52228232708285E-03
      1.92576656089629E-29
      3.43333333333333E-01
      5.15000000000000E+00   5.15000000000000E+00   0.00000000000000E+00   0.00000000000000E+00   1.97284636000489E-03
      8.02449685545214E-04   2.77529604555011E-03  -4.13807557339126E-27   0.00000000000000E+00   0.00000000000000E+00
      0.00000000000000E+00   0.00000000000000E+00  -1.83642163357580E-11  -2.77529602718588E-03  -2.77529604555010E-03
     -2.15801981447172E-29
      3.53333333333333E-01
      5.30000000000000E+00   5.30000000000000E+00   0.00000000000000E+00   0.00000000000000E+00   2.22972089145671E-03
      8.17911060154486E-04   3.04763195161120E-03   2.87805328665005E-27   0.00000000000000E+00   0.00000000000000E+00
      0.00000000000000E+00   0.00000000000000E+00  -2.32476652014530E-11  -3.04763192836352E-03  -3.04763195161119E-03
      1.57738668053314E-29
      3.63333333333334E-01
      5.45000000000000E+00   5.45000000000000E+00   0.00000000000000E+00   0.00000000000000E+00   2.50754281804378E-03
      8.32340049666729E-04   3.33988286771051E-03  -7.92564227826160E-29   0.00000000000000E+00   0.00000000000000E+00
      0.00000000000000E+00   0.00000000000000E+00  -2.86432441223096E-11  -3.33988283906727E-03  -3.33988286771051E-03
      1.04513964108944E-29
      3.73333333333334E-01
      5.60000000000000E+00   5.60000000000000E+00   0.00000000000000E+00   0.00000000000000E+00   2.80673969827044E-03
      8.45811404127039E-04   3.65255110239748E-03  -2.41134521219967E-27   0.00000000000000E+00   0.00000000000000E+00
      0.00000000000000E+00   0.00000000000000E+00  -3.45557284895552E-11  -3.65255106784174E-03  -3.65255110239747E-03
     -1.06449407888739E-30
      3.83333333333334E-01
      5.75000000000000E+00   5.75000000000000E+00   0.00000000000000E+00   0.00000000000000E+00   3.12765921722643E-03
      8.58391623173963E-04   3.98605084040039E-03  -1.34397216068983E-27   0.00000000000000E+00   0.00000000000000E+00
      0.00000000000000E+00   0.00000000000000E+00  -4.09811737525530E-11  -3.98605079941920E-03  -3.98605084040037E-03
      8.90304138705821E-30
      3.93333333333334E-01
      5.90000000000000E+00   5.90000000000000E+00   0.00000000000000E+00   0.00000000000000E+00   3.47056766284965E-03
      8.70140823245142E-04   4.34070848609479E-03   4.37386101186482E-28   0.00000000000000E+00   0.00000000000000E+00
      0.00000000000000E+00   0.00000000000000E+00  -4.79064508662257E-11  -4.34070843818833E-03  -4.34070848609478E-03
     -1.62577277502802E-29
      4.03333333333334E-01
      6.05000000000000E+00   6.05000000000000E+00   0.00000000000000E+00   0.00000000000000E+00   3.83564719686267E-03
      8.81114136771153E-04   4.71676133363382E-03   2.03141759822586E-27   0.00000000000000E+00   0.00000000000000E+00
      0.00000000000000E+00   0.00000000000000E+00  -5.53095143872986E-11  -4.71676127832431E-03  -4.71676133363382E-03
     -2.12898815777479E-30
      4.13333333333334E-01
      6.20000000000000E+00   6.20000000000000E+00   0.00000000000000E+00   0.00000000000000E+00   4.22299247878076E-03
      8.91362742898276E-04   5.11435522167903E-03  -1.46222777563532E-27   0.00000000000000E+00   0.00000000000000E+00
      0.00000000000000E+00   0.00000000000000E+00  -6.31609178912971E-11  -5.11435515851809E-03  -5.11435522167901E-03
     -1.10320295448330E-29
      4.23333333333334E-01
      6.35000000000000E+00   6.35000000000000E+00   0.00000000000000E+00   0.00000000000000E+00   4.63260740971623E-03
      9.00934611384428E-04   5.53354202110066E-03  -4.83498049240104E-28   0.00000000000000E+00   0.00000000000000E+00
      0.00000000000000E+00   0.00000000000000E+00  -7.14270467288971E-11  -5.53354194967361E-03  -5.53354202110065E-03
     -5.12892601645745E-30
      4.33333333333334E-01
      6.50000000000000E+00   6.50000000000000E+00   0.00000000000000E+00   0.00000000000000E+00   5.06440287026699E-03
      9.09875023596896E-04   5.97427789386389E-03  -8.60812814111191E-28   0.00000000000000E+00   0.00000000000000E+00
      0.00000000000000E+00   0.00000000000000E+00  -8.00750053378242E-11  -5.97427781378886E-03  -5.97427789386386E-03
     -3.21283667446014E-29
      4.43333333333334E-01
      6.65000000000000E+00   6.65000000000000E+00   0.00000000000000E+00   0.00000000000000E+00   5.51819626730696E-03
      9.18226920729703E-04   6.43642318803666E-03  -7.81183818400964E-27   0.00000000000000E+00   0.00000000000000E+00
      0.00000000000000E+00   0.00000000000000E+00  -8.90781816829259E-11  -6.43642309895842E-03  -6.43642318803660E-03
     -7.25791417423224E-30
      4.53333333333334E-01
      6.80000000000000E+00   6.80000000000000E+00   0.00000000000000E+00   0.00000000000000E+00   5.99371348848961E-03
      9.26031119968969E-04   6.91974460845858E-03   4.80101345406563E-27   0.00000000000000E+00   0.00000000000000E+00
      0.00000000000000E+00   0.00000000000000E+00  -9.84207355548328E-11  -6.91974451003788E-03  -6.91974460845862E-03
     -1.24836123796794E-29
      4.63333333333334E-01
      6.95000000000000E+00   6.95000000000000E+00   0.00000000000000E+00   0.00000000000000E+00   6.49059358320875E-03
      9.33326431767608E-04   7.42392001497636E-03   2.13648800242150E-27   0.00000000000000E+00   0.00000000000000E+00
      0.00000000000000E+00   0.00000000000000E+00  -1.08096267966810E-10  -7.42391990688006E-03  -7.42392001497632E-03
     -9.58044670998655E-30
      4.73333333333334E-01
      7.10000000000000E+00   7.10000000000000E+00   0.00000000000000E+00   0.00000000000000E+00   7.00839611284286E-03
      9.40149708522354E-04   7.94854582136522E-03  -4.72768432785864E-27   0.00000000000000E+00   0.00000000000000E+00
      0.00000000000000E+00   0.00000000000000E+00  -1.17632827593278E-10  -7.94854570373240E-03  -7.94854582136522E-03
     -6.77405322928342E-31
      4.83333333333334E-01
      7.25000000000000E+00   7.25000000000000E+00   0.00000000000000E+00   0.00000000000000E+00   7.54661096067736E-03
      9.46535847595750E-04   8.49314680827311E-03  -2.14592329084800E-27   0.00000000000000E+00   0.00000000000000E+00
      0.00000000000000E+00   0.00000000000000E+00  -1.27060018758405E-10  -8.49314668121309E-03  -8.49314680827311E-03
      6.19342009534484E-30
      4.93333333333334E-01
      7.40000000000000E+00   7.40000000000000E+00   0.00000000000000E+00   0.00000000000000E+00   8.10467010076625E-03
      9.52517770035376E-04   9.05718787080163E-03  -2.81849000432685E-27   0.00000000000000E+00   0.00000000000000E+00
      0.00000000000000E+00   0.00000000000000E+00   1.02719137221134E-09  -9.05718889799297E-03  -9.05718787080160E-03
      1.19029792457409E-29
      5.03333333333334E-01
      7.55000000000000E+00   7.55000000000000E+00   0.00000000000000E+00   0.00000000000000E+00   8.68196056660455E-03
      9.58126390843429E-04   9.64008695744798E-03  -7.95902868346307E-28   0.00000000000000E+00   0.00000000000000E+00
      0.00000000000000E+00   0.00000000000000E+00   7.32550795166628E-08  -9.64016021252745E-03  -9.64008695744794E-03
      1.41287395925054E-29
      5.13333333333334E-01
      7.70000000000000E+00   7.70000000000000E+00   0.00000000000000E+00   0.00000000000000E+00   9.27783731752874E-03
      9.63390590758966E-04   1.02412279082877E-02  -3.36254325082730E-27   0.00000000000000E+00   0.00000000000000E+00
      0.00000000000000E+00   0.00000000000000E+00   8.24209320149149E-07  -1.02420521176079E-02  -1.02412279082877E-02
     -5.41924258342674E-30
      5.23333333333334E-01
      7.85000000000000E+00   7.85000000000000E+00   0.00000000000000E+00   0.00000000000000E+00   9.89163583958768E-03
      9.68337205519684E-04   1.08599730451074E-02  -4.60207402654993E-27   0.00000000000000E+00   0.00000000000000E+00
      0.00000000000000E+00   0.00000000000000E+00   4.06612852438219E-06  -1.08640391736317E-02  -1.08599730451074E-02
     -1.54835502383621E-30
      5.33333333333334E-01
      8.00000000000001E+00   8.00000000000001E+00   0.00000000000000E+00   0.00000000000000E+00   1.05226848520647E-02
      9.72991054151777E-04   1.14956759062164E-02  -1.48721919344193E-27   0.00000000000000E+00   0.00000000000000E+00
      0.00000000000000E+00   0.00000000000000E+00   1.27152846662785E-05  -1.15083911908827E-02  -1.14956759062164E-02
      1.46126005374542E-29
      5.43333333333334E-01
      8.15000000000001E+00   8.15000000000001E+00   0.00000000000000E+00   0.00000000000000E+00   1.11703197366694E-02
      9.77374979764134E-04   1.21476947164335E-02  -2.79710335056011E-27   0.00000000000000E+00   0.00000000000000E+00
      0.00000000000000E+00   0.00000000000000E+00   3.00989873006622E-05  -1.21777937037342E-02  -1.21476947164335E-02
      2.60317188382463E-29
      5.53333333333334E-01
      8.30000000000000E+00   8.30000000000000E+00   0.00000000000000E+00   0.00000000000000E+00   1.18338931679776E-02
      9.81509913950784E-04   1.28154030819284E-02   3.68218179106049E-29   0.00000000000000E+00   0.00000000000000E+00
      0.00000000000000E+00   0.00000000000000E+00   5.93746535299495E-05  -1.28747777354583E-02  -1.28154030819283E-02
     -1.79996271520959E-29
      5.63333333333334E-01
      8.45000000000000E+00   8.45000000000000E+00   0.00000000000000E+00   0.00000000000000E+00   1.25127835107729E-02
      9.85414953959392E-04   1.34981984647323E-02  -3.42338876465461E-27   0.00000000000000E+00   0.00000000000000E+00
      0.00000000000000E+00   0.00000000000000E+00   1.03277924442064E-04  -1.36014763891743E-02  -1.34981984647323E-02
      5.70955915039602E-30
      5.73333333333334E-01
      8.60000000000000E+00   8.60000000000000E+00   0.00000000000000E+00   0.00000000000000E+00   1.32064016963071E-02
      9.89107449601231E-04   1.41955091459084E-02  -2.89929478213330E-28   0.00000000000000E+00   0.00000000000000E+00
      0.00000000000000E+00   0.00000000000000E+00   1.64099204505815E-04  -1.43596083504142E-02  -1.41955091459083E-02
     -2.32253253575432E-29
      5.83333333333334E-01
      8.75000000000001E+00   8.75000000000001E+00   0.00000000000000E+00   0.00000000000000E+00   1.39141957912962E-02
      9.92603108997629E-04   1.49067989002938E-02   6.81261694659584E-27   0.00000000000000E+00   0.00000000000000E+00
      0.00000000000000E+00   0.00000000000000E+00   2.43758275879678E-04  -1.51505571761735E-02  -1.49067989002938E-02
      5.61278696140626E-30
      5.93333333333334E-01
      8.90000000000001E+00   8.90000000000001E+00   0.00000000000000E+00   0.00000000000000E+00   1.46356536772857E-02
      9.95916118164209E-04   1.56315697954499E-02  -6.20384729870849E-27   0.00000000000000E+00   0.00000000000000E+00
      0.00000000000000E+00   0.00000000000000E+00   3.43900203837664E-04  -1.59754699992875E-02  -1.56315697954499E-02
      9.87076327695584E-30
      6.03333333333334E-01
      9.05000000000001E+00   9.05000000000001E+00   0.00000000000000E+00   0.00000000000000E+00   1.53703037043899E-02
      9.99059273490331E-04   1.63693629778802E-02  -3.98844157616584E-27   0.00000000000000E+00   0.00000000000000E+00
      0.00000000000000E+00   0.00000000000000E+00   4.65980566063333E-04  -1.68353435439434E-02  -1.63693629778801E-02
     -1.53867780493723E-29
      6.13333333333334E-01
      9.20000000000001E+00   9.20000000000001E+00   0.00000000000000E+00   0.00000000000000E+00   1.61177132521383E-02
      1.00204412523353E-03   1.71197573773718E-02  -9.46335236130894E-28   0.00000000000000E+00   0.00000000000000E+00
      0.00000000000000E+00   0.00000000000000E+00   6.11331446901147E-04  -1.77310888242730E-02  -1.71197573773718E-02
      7.25791417423224E-30
      6.23333333333334E-01
      9.35000000000001E+00   9.35000000000001E+00   0.00000000000000E+00   0.00000000000000E+00   1.68774852208703E-02
      1.00488112933840E-03   1.78823663502087E-02  -1.33245627020005E-27   0.00000000000000E+00   0.00000000000000E+00
      0.00000000000000E+00   0.00000000000000E+00   7.81209076028906E-04  -1.86635754262375E-02  -1.78823663502086E-02
     -1.21932958127102E-29
      6.33333333333334E-01
      9.50000000000001E+00   9.50000000000001E+00   0.00000000000000E+00   0.00000000000000E+00   1.76492526195448E-02
      1.00757980377702E-03   1.86568324233218E-02  -6.21761314259228E-28   0.00000000000000E+00   0.00000000000000E+00
      0.00000000000000E+00   0.00000000000000E+00   9.76827511097308E-04  -1.96336599344190E-02  -1.86568324233217E-02
      3.09671004767242E-30
      6.43333333333334E-01
      9.65000000000001E+00   9.65000000000001E+00   0.00000000000000E+00   0.00000000000000E+00   1.84326715961459E-02
      1.01014888424472E-03   1.94428204803906E-02  -4.53099485373695E-27   0.00000000000000E+00   0.00000000000000E+00
      0.00000000000000E+00   0.00000000000000E+00   1.19938738476571E-03  -2.06422078651563E-02  -1.94428204803905E-02
     -2.90316566969289E-30
      6.53333333333334E-01
      9.80000000000001E+00   9.80000000000001E+00   0.00000000000000E+00   0.00000000000000E+00   1.92274134525712E-02
      1.01259647276862E-03   2.02400099253398E-02  -1.77472936693051E-27   0.00000000000000E+00   0.00000000000000E+00
      0.00000000000000E+00   0.00000000000000E+00   1.45011210258554E-03  -2.16901220279253E-02  -2.02400099253398E-02
     -9.29013014301726E-30
      6.63333333333334E-01
      9.95000000000001E+00   9.95000000000001E+00   0.00000000000000E+00   0.00000000000000E+00   2.00331563650375E-02
      1.01493017206582E-03   2.10480865371033E-02  -4.77747361909387E-27   0.00000000000000E+00   0.00000000000000E+00
      0.00000000000000E+00   0.00000000000000E+00   1.73029259211452E-03  -2.27783791292178E-02  -2.10480865371033E-02
      4.06443193757005E-30
      6.73333333333334E-01
      1.01000000000000E+01   1.01000000000000E+01   0.00000000000000E+00   0.00000000000000E+00   2.08495776354257E-02
      1.01715719872054E-03   2.18667348341462E-02   7.08314360091672E-27   0.00000000000000E+00   0.00000000000000E+00
      0.00000000000000E+00   0.00000000000000E+00   2.04132611929794E-03  -2.39080609534441E-02  -2.18667348341462E-02
      2.51607691373384E-29
      6.83333333333334E-01