DF-ISE text

Info {
  version   = 1.0
  type      = xyplot
  datasets  = [
    "time"
    "Cathode OuterVoltage" "Cathode InnerVoltage" "Cathode QuasiFermiPotential" "Cathode DisplacementCurrent" "Cathode eCurrent"
    "Cathode hCurrent" "Cathode TotalCurrent" "Cathode Charge" "Anode OuterVoltage" "Anode InnerVoltage"
    "Anode QuasiFermiPotential" "Anode DisplacementCurrent" "Anode eCurrent" "Anode hCurrent" "Anode TotalCurrent"
    "Anode Charge" ]
  functions = [
    Time
    OuterVoltage InnerVoltage QuasiFermiPotential DisplacementCurrent eCurrent
    hCurrent TotalCurrent Charge OuterVoltage InnerVoltage
    QuasiFermiPotential DisplacementCurrent eCurrent hCurrent TotalCurrent
    Charge ]
}

Data {
      0.00000000000000E+00
      0.00000000000000E+00   0.00000000000000E+00   0.00000000000000E+00   0.00000000000000E+00   1.38897088153614E-27
     -1.38897088145026E-27   8.58792573422261E-38  -2.93353678391826E-33   0.00000000000000E+00   0.00000000000000E+00
      0.00000000000000E+00   0.00000000000000E+00   1.54711613717795E-21  -1.54711613717795E-21  -4.79656845720551E-40
      5.19772499456736E-32
      0.00000000000000E+00
      0.00000000000000E+00   0.00000000000000E+00   0.00000000000000E+00   0.00000000000000E+00  -7.14017744126603E-23
     -7.62041481081316E-25  -7.21638158937416E-23   2.75716936423063E-33   0.00000000000000E+00   0.00000000000000E+00
      0.00000000000000E+00   0.00000000000000E+00   7.47505637531187E-22  -6.75341821637463E-22   7.21638158937240E-23
      1.13404908972379E-32
      0.00000000000000E+00
      0.00000000000000E+00   0.00000000000000E+00   0.00000000000000E+00   0.00000000000000E+00  -2.50733623004448E-27
     -1.64907079768128E-27  -4.15640702772576E-27  -6.72645582467881E-33   0.00000000000000E+00   0.00000000000000E+00
      0.00000000000000E+00   0.00000000000000E+00  -3.06846486456967E-21   3.06846902097670E-21   4.15640702683512E-27
      7.56032726482525E-33
      1.00000000000000E-02
      0.00000000000000E+00   0.00000000000000E+00   0.00000000000000E+00   0.00000000000000E+00   7.72555340893566E-10
     -9.22342538202862E-28   7.72555340893566E-10  -8.20609196414120E-33  -1.50000000000000E-01  -1.50000000000000E-01
      0.00000000000000E+00   0.00000000000000E+00  -7.72555340897220E-10   3.65325209423646E-21  -7.72555340893566E-10
     -1.20776228055583E-31
      2.00000000000000E-02
      0.00000000000000E+00   0.00000000000000E+00   0.00000000000000E+00   0.00000000000000E+00   1.31128446022711E-09
      1.07226838502947E-27   1.31128446022711E-09  -6.50663323118836E-33  -3.00000000000000E-01  -3.00000000000000E-01
      0.00000000000000E+00   0.00000000000000E+00  -1.31128446022696E-09  -1.48930422469159E-22  -1.31128446022711E-09
     -1.15105982606964E-31
      3.00000000000000E-02
      0.00000000000000E+00   0.00000000000000E+00   0.00000000000000E+00   0.00000000000000E+00   1.80711595283447E-09
     -2.94044053138782E-28   1.80711595283447E-09   4.71060407477393E-33  -4.50000000000000E-01  -4.50000000000000E-01
      0.00000000000000E+00   0.00000000000000E+00  -1.80711595283251E-09  -1.95235122538598E-21  -1.80711595283447E-09
      5.12212172191910E-32
      4.00000000000000E-02
      0.00000000000000E+00   0.00000000000000E+00   0.00000000000000E+00   0.00000000000000E+00   2.26581845928496E-09
     -2.32065710252097E-28   2.26581845928496E-09   1.79444855032425E-33  -6.00000000000000E-01  -6.00000000000000E-01
      0.00000000000000E+00   0.00000000000000E+00  -2.26581845927458E-09  -1.03793464580545E-20  -2.26581845928496E-09
      1.36085890766854E-32
      5.00000000000000E-02
      0.00000000000000E+00   0.00000000000000E+00   0.00000000000000E+00   0.00000000000000E+00   2.67152944648628E-09
      3.25242957507952E-28   2.67152944648628E-09   4.99558713566889E-33  -7.50000000000000E-01  -7.50000000000000E-01
      0.00000000000000E+00   0.00000000000000E+00  -2.67152944651214E-09   2.58625312405406E-20  -2.67152944648628E-09
      1.15673007151826E-31
      6.00000000000000E-02
      0.00000000000000E+00   0.00000000000000E+00   0.00000000000000E+00   0.00000000000000E+00   3.06748203121339E-09
     -3.13476267783164E-20   3.06748203118204E-09   1.42869887045992E-33  -9.00000000000000E-01  -9.00000000000000E-01
      0.00000000000000E+00   0.00000000000000E+00  -3.06748203187775E-09   6.95712814222830E-19  -3.06748203118204E-09
      3.78016363241262E-34
      7.00000000000000E-02
      0.00000000000000E+00   0.00000000000000E+00   0.00000000000000E+00   0.00000000000000E+00   3.47455648179500E-09
     -3.04440022739442E-20   3.47455648176455E-09   1.35580513792142E-32  -1.05000000000000E+00  -1.05000000000000E+00
      0.00000000000000E+00   0.00000000000000E+00  -3.47455648127971E-09  -4.84840432654702E-19  -3.47455648176455E-09
     -6.38847653877733E-32
      8.00000000000000E-02
      0.00000000000000E+00   0.00000000000000E+00   0.00000000000000E+00   0.00000000000000E+00   3.85351264741682E-09
     -2.99727424843807E-20   3.85351264738684E-09  -1.56787131798137E-32  -1.20000000000000E+00  -1.20000000000000E+00
      0.00000000000000E+00   0.00000000000000E+00  -3.85351264829823E-09   9.11385880202333E-19  -3.85351264738684E-09
     -9.45040908103156E-33
      9.00000000000000E-02
      0.00000000000000E+00   0.00000000000000E+00   0.00000000000000E+00   0.00000000000000E+00   4.21105726073680E-09
     -2.81588341473429E-20   4.21105726070864E-09  -2.31019049579289E-33  -1.35000000000000E+00  -1.35000000000000E+00
      0.00000000000000E+00   0.00000000000000E+00  -4.21105726052459E-09  -1.84053733669260E-19  -4.21105726070864E-09
      2.14713294321037E-31
      1.00000000000000E-01
      0.00000000000000E+00   0.00000000000000E+00   0.00000000000000E+00   0.00000000000000E+00   4.57545780994705E-09
     -2.58801103723943E-20   4.57545780992117E-09   2.06184871761614E-32  -1.50000000000000E+00  -1.50000000000000E+00
      0.00000000000000E+00   0.00000000000000E+00  -4.57545780844138E-09  -1.47979382277485E-18  -4.57545780992117E-09
     -1.51206545296505E-32
      1.10000000000000E-01
      0.00000000000000E+00   0.00000000000000E+00   0.00000000000000E+00   0.00000000000000E+00   4.95785554637277E-09
     -2.15039205098489E-20   4.95785554635127E-09  -5.60856842412548E-33  -1.65000000000000E+00  -1.65000000000000E+00
      0.00000000000000E+00   0.00000000000000E+00  -4.95785554688900E-09   5.37732277494597E-19  -4.95785554635127E-09
      1.60278938014295E-31
      1.20000000000000E-01
      0.00000000000000E+00   0.00000000000000E+00   0.00000000000000E+00   0.00000000000000E+00   5.32521375765931E-09
     -6.34814502077464E-21   5.32521375765296E-09   7.73729201639230E-33  -1.80000000000000E+00  -1.80000000000000E+00
      0.00000000000000E+00   0.00000000000000E+00  -5.32521375501124E-09  -2.64172086098871E-18  -5.32521375765296E-09
      9.45040908103156E-32
      1.30000000000000E-01
      0.00000000000000E+00   0.00000000000000E+00   0.00000000000000E+00   0.00000000000000E+00   5.65445900270534E-09
     -4.50002337678203E-21   5.65445900270084E-09  -1.69852180913793E-32  -1.95000000000000E+00  -1.95000000000000E+00
      0.00000000000000E+00   0.00000000000000E+00  -5.65445899034834E-09  -1.23525090363493E-17  -5.65445900270084E-09
     -1.54608692565676E-31
      1.40000000000000E-01
      0.00000000000000E+00   0.00000000000000E+00   0.00000000000000E+00   0.00000000000000E+00   5.96129363184925E-09
     -6.06163785543820E-22   5.96129363184864E-09   4.53269676149242E-33  -2.10000000000000E+00  -2.10000000000000E+00
      0.00000000000000E+00   0.00000000000000E+00  -5.96129363204033E-09   1.91681154496610E-19  -5.96129363184864E-09
      2.15469327047520E-32
      1.50000000000000E-01
      0.00000000000000E+00   0.00000000000000E+00   0.00000000000000E+00   0.00000000000000E+00   6.25901115962732E-09
     -9.24039798982935E-23   6.25901115962723E-09   2.97691800906014E-33  -2.25000000000000E+00  -2.25000000000000E+00
      0.00000000000000E+00   0.00000000000000E+00  -6.25901115917597E-09  -4.51262584088149E-19  -6.25901115962723E-09
     -1.08490696250242E-31
      1.60000000000000E-01
      0.00000000000000E+00   0.00000000000000E+00   0.00000000000000E+00   0.00000000000000E+00   6.55325101471558E-09
     -3.22050170394158E-23   6.55325101471555E-09  -1.64244413936227E-32  -2.40000000000000E+00  -2.40000000000000E+00
      0.00000000000000E+00   0.00000000000000E+00  -6.55325101476360E-09   4.80435773009043E-20  -6.55325101471555E-09
     -2.69525666991020E-31
      1.70000000000000E-01
      0.00000000000000E+00   0.00000000000000E+00   0.00000000000000E+00   0.00000000000000E+00   6.84677683126430E-09
     -2.83862499540596E-23   6.84677683126427E-09   2.15806019771679E-33  -2.55000000000000E+00  -2.55000000000000E+00
      0.00000000000000E+00   0.00000000000000E+00  -6.84677683134675E-09   8.24799191486683E-20  -6.84677683126427E-09
     -2.38150308841995E-31
      1.80000000000000E-01
      0.00000000000000E+00   0.00000000000000E+00   0.00000000000000E+00   0.00000000000000E+00   7.14205204906292E-09
     -1.26042964475371E-23   7.14205204906291E-09   3.21786701390020E-33  -2.70000000000000E+00  -2.70000000000000E+00
      0.00000000000000E+00   0.00000000000000E+00  -7.14205204922059E-09   1.57684236884972E-19  -7.14205204906291E-09
      2.12823212504831E-31
      1.90000000000000E-01
      0.00000000000000E+00   0.00000000000000E+00   0.00000000000000E+00   0.00000000000000E+00   7.44328301489777E-09
     -6.52227016168870E-24   7.44328301489776E-09   3.24137388986658E-34  -2.85000000000000E+00  -2.85000000000000E+00
      0.00000000000000E+00   0.00000000000000E+00  -7.44328301500044E-09   1.02678968953100E-19  -7.44328301489776E-09
      8.69437635454903E-33
      2.00000000000000E-01
      0.00000000000000E+00   0.00000000000000E+00   0.00000000000000E+00   0.00000000000000E+00   7.75838637824000E-09
     -6.29892960319141E-24   7.75838637823999E-09  -4.20726534161448E-33  -3.00000000000000E+00  -3.00000000000000E+00
      0.00000000000000E+00   0.00000000000000E+00  -7.75838637814854E-09  -9.14572451654076E-20  -7.75838637823999E-09
      7.82493871909413E-32
      2.10000000000000E-01
      0.00000000000000E+00   0.00000000000000E+00   0.00000000000000E+00   0.00000000000000E+00   8.09464441757995E-09
     -4.59229128477561E-24   8.09464441757994E-09  -1.90650342691863E-33  -3.15000000000000E+00  -3.15000000000000E+00
      0.00000000000000E+00   0.00000000000000E+00  -8.09464441759154E-09   1.16016064942488E-20  -8.09464441757994E-09
      1.70485379821809E-31
      2.20000000000000E-01
      0.00000000000000E+00   0.00000000000000E+00   0.00000000000000E+00   0.00000000000000E+00   8.44033318429372E-09
     -4.76795261547208E-24   8.44033318429371E-09   1.68283956047784E-32  -3.30000000000000E+00  -3.30000000000000E+00
      0.00000000000000E+00   0.00000000000000E+00  -8.44033318451700E-09   2.23289456611166E-19  -8.44033318429371E-09
      4.23378326830214E-32
      2.30000000000000E-01
      0.00000000000000E+00   0.00000000000000E+00   0.00000000000000E+00   0.00000000000000E+00   8.76768153103329E-09
     -5.06701349377646E-24   8.76768153103329E-09  -1.39583415268727E-32  -3.45000000000000E+00  -3.45000000000000E+00
      0.00000000000000E+00   0.00000000000000E+00  -8.76768153090569E-09  -1.27593626330499E-19  -8.76768153103329E-09
      8.73217799087316E-32
      2.40000000000000E-01
      0.00000000000000E+00   0.00000000000000E+00   0.00000000000000E+00   0.00000000000000E+00   9.06931023187509E-09
     -1.97619911848811E-24   9.06931023187509E-09  -8.61582819276728E-33  -3.60000000000000E+00  -3.60000000000000E+00
      0.00000000000000E+00   0.00000000000000E+00  -9.06931023184839E-09  -2.66936081711118E-20  -9.06931023187509E-09
     -2.90316566969289E-31
      2.50000000000000E-01
      0.00000000000000E+00   0.00000000000000E+00   0.00000000000000E+00   0.00000000000000E+00   9.35553998008936E-09
     -1.02038191775430E-24   9.35553998008936E-09  -1.23763392830411E-32  -3.75000000000000E+00  -3.75000000000000E+00
      0.00000000000000E+00   0.00000000000000E+00  -9.35553998002895E-09  -6.04153986296481E-20  -9.35553998008936E-09
     -9.82842544427282E-32
      2.60000000000000E-01
      0.00000000000000E+00   0.00000000000000E+00   0.00000000000000E+00   0.00000000000000E+00   9.63542932815125E-09
     -4.74849597862845E-25   9.63542932815125E-09  -1.76848631716743E-32  -3.90000000000000E+00  -3.90000000000000E+00
      0.00000000000000E+00   0.00000000000000E+00  -9.63542932795685E-09  -1.94406144717446E-19  -9.63542932815125E-09
     -2.19627507043173E-31
      2.70000000000000E-01
      0.00000000000000E+00   0.00000000000000E+00   0.00000000000000E+00   0.00000000000000E+00   9.91356184057874E-09
     -9.02851740543112E-26   9.91356184057874E-09   9.94746186609068E-33  -4.05000000000000E+00  -4.05000000000000E+00
      0.00000000000000E+00   0.00000000000000E+00  -9.91356184048895E-09  -8.97891589506826E-20  -9.91356184057874E-09
      1.14916974425344E-31
      2.80000000000000E-01
      0.00000000000000E+00   0.00000000000000E+00   0.00000000000000E+00   0.00000000000000E+00   1.01921300483416E-08
     -1.77474140894754E-25   1.01921300483416E-08   1.56494043120867E-32  -4.20000000000000E+00  -4.20000000000000E+00
      0.00000000000000E+00   0.00000000000000E+00  -1.01921300483493E-08   7.71974959902191E-21  -1.01921300483416E-08
     -1.57632823471606E-31
      2.90000000000000E-01
      0.00000000000000E+00   0.00000000000000E+00   0.00000000000000E+00   0.00000000000000E+00   1.04724105777196E-08
     -1.73856534609541E-25   1.04724105777196E-08   2.58339195150961E-32  -4.35000000000000E+00  -4.35000000000000E+00
      0.00000000000000E+00   0.00000000000000E+00  -1.04724105776257E-08  -9.38560717034367E-20  -1.04724105777196E-08
     -3.86710739595811E-31
      3.00000000000000E-01
      0.00000000000000E+00   0.00000000000000E+00   0.00000000000000E+00   0.00000000000000E+00   1.07555543676957E-08
     -2.50088252697811E-25   1.07555543676957E-08  -3.31664137060128E-36  -4.50000000000000E+00  -4.50000000000000E+00
      0.00000000000000E+00   0.00000000000000E+00  -1.07555543677337E-08   3.79740050688615E-20  -1.07555543676957E-08
     -1.25879448959340E-31
      3.10000000000000E-01
      0.00000000000000E+00   0.00000000000000E+00   0.00000000000000E+00   0.00000000000000E+00   1.10432179319925E-08
     -1.56073243615833E-25   1.10432179319925E-08  -1.83965949425626E-33  -4.65000000000000E+00  -4.65000000000000E+00
      0.00000000000000E+00   0.00000000000000E+00  -1.10432179318748E-08  -1.17626466791412E-19  -1.10432179319925E-08
     -1.85984050714701E-31
      3.20000000000000E-01
      0.00000000000000E+00   0.00000000000000E+00   0.00000000000000E+00   0.00000000000000E+00   1.13382918669266E-08
     -1.52398029681080E-25   1.13382918669266E-08  -3.18537043557447E-32  -4.80000000000000E+00  -4.80000000000000E+00
      0.00000000000000E+00   0.00000000000000E+00  -1.13382918668773E-08  -4.92216127692063E-20  -1.13382918669266E-08
     -8.54316980925253E-32
      3.30000000000000E-01
      0.00000000000000E+00   0.00000000000000E+00   0.00000000000000E+00   0.00000000000000E+00   1.16453638560501E-08
      1.48397691486590E-25   1.16453638560501E-08  -1.93091868409083E-32  -4.95000000000000E+00  -4.95000000000000E+00
      0.00000000000000E+00   0.00000000000000E+00  -1.16453638560632E-08   1.31241171767199E-20  -1.16453638560501E-08
     -2.84268305157429E-31
      3.40000000000000E-01
      0.00000000000000E+00   0.00000000000000E+00   0.00000000000000E+00   0.00000000000000E+00   1.19688176579492E-08
     -1.05489123254193E-26   1.19688176579492E-08   5.68248529729444E-33  -5.10000000000000E+00  -5.10000000000000E+00
      0.00000000000000E+00   0.00000000000000E+00  -1.19688176578222E-08  -1.27016690619867E-19  -1.19688176579492E-08
     -2.01104705244352E-31
      3.50000000000000E-01
      0.00000000000000E+00   0.00000000000000E+00   0.00000000000000E+00   0.00000000000000E+00   1.23059406166043E-08
     -4.49908621043681E-26   1.23059406166043E-08   7.92611964158886E-33  -5.25000000000000E+00  -5.25000000000000E+00
      0.00000000000000E+00   0.00000000000000E+00  -1.23059406164431E-08  -1.61177071997818E-19  -1.23059406166043E-08
     -3.06949286951905E-31
      3.60000000000000E-01
      0.00000000000000E+00   0.00000000000000E+00   0.00000000000000E+00   0.00000000000000E+00   1.26429346386507E-08
     -7.43238224251681E-26   1.26429346386507E-08  -1.61054706198951E-32  -5.40000000000000E+00  -5.40000000000000E+00
      0.00000000000000E+00   0.00000000000000E+00  -1.26429346386791E-08   2.84472017417527E-20  -1.26429346386507E-08
     -2.77464010619087E-31
      3.70000000000000E-01
      0.00000000000000E+00   0.00000000000000E+00   0.00000000000000E+00   0.00000000000000E+00   1.29671078922116E-08
     -1.40189041514168E-25   1.29671078922116E-08   8.43671658059293E-33  -5.55000000000000E+00  -5.55000000000000E+00
      0.00000000000000E+00   0.00000000000000E+00  -1.29671078921842E-08  -2.74116459218476E-20  -1.29671078922116E-08
      1.73887527090981E-32
      3.80000000000000E-01
      0.00000000000000E+00   0.00000000000000E+00   0.00000000000000E+00   0.00000000000000E+00   1.32776391428234E-08
     -1.67769536879301E-25   1.32776391428234E-08   2.14954295903205E-32  -5.70000000000000E+00  -5.70000000000000E+00
      0.00000000000000E+00   0.00000000000000E+00  -1.32776391430024E-08   1.79044627160326E-19  -1.32776391428234E-08
     -2.07908999782694E-31
      3.90000000000000E-01
      0.00000000000000E+00   0.00000000000000E+00   0.00000000000000E+00   0.00000000000000E+00   1.35800515176771E-08
     -8.44356231675921E-26   1.35800515176771E-08  -1.41712644952979E-32  -5.85000000000000E+00  -5.85000000000000E+00
      0.00000000000000E+00   0.00000000000000E+00  -1.35800515177195E-08   4.24452465016803E-20  -1.35800515176771E-08
      1.29281596228512E-31
      4.00000000000000E-01
      0.00000000000000E+00   0.00000000000000E+00   0.00000000000000E+00   0.00000000000000E+00   1.38794188582025E-08
     -2.55688769625552E-26   1.38794188582025E-08   2.00355103918092E-32  -6.00000000000000E+00  -6.00000000000000E+00
      0.00000000000000E+00   0.00000000000000E+00  -1.38794188582804E-08   7.79354856542668E-20  -1.38794188582025E-08
     -8.39196326395602E-32
      4.10000000000000E-01
      0.00000000000000E+00   0.00000000000000E+00   0.00000000000000E+00   0.00000000000000E+00   1.41788630568753E-08
     -5.02217340550384E-26   1.41788630568753E-08  -6.20999854930656E-33  -6.15000000000000E+00  -6.15000000000000E+00
      0.00000000000000E+00   0.00000000000000E+00  -1.41788630568943E-08   1.90390392039254E-20  -1.41788630568753E-08
     -6.80429453834272E-32
      4.20000000000000E-01
      0.00000000000000E+00   0.00000000000000E+00   0.00000000000000E+00   0.00000000000000E+00   1.44801468080305E-08
     -1.37850923768355E-26   1.44801468080305E-08  -3.75352725295993E-32  -6.30000000000000E+00  -6.30000000000000E+00
      0.00000000000000E+00   0.00000000000000E+00  -1.44801468079679E-08  -6.25423334032868E-20  -1.44801468080305E-08
      1.85984050714701E-31
      4.30000000000000E-01
      0.00000000000000E+00   0.00000000000000E+00   0.00000000000000E+00   0.00000000000000E+00   1.47843369603788E-08
     -3.65698779142916E-27   1.47843369603788E-08  -1.27190831653060E-32  -6.45000000000000E+00  -6.45000000000000E+00
      0.00000000000000E+00   0.00000000000000E+00  -1.47843369604216E-08   4.28275980323543E-20  -1.47843369603788E-08
     -2.04128836150282E-32
      4.40000000000000E-01
      0.00000000000000E+00   0.00000000000000E+00   0.00000000000000E+00   0.00000000000000E+00   1.50922040516871E-08
      1.20009672049533E-25   1.50922040516871E-08   5.95143722570485E-32  -6.60000000000000E+00  -6.60000000000000E+00
      0.00000000000000E+00   0.00000000000000E+00  -1.50922040518640E-08   1.76976348224360E-19  -1.50922040516871E-08
      3.90868919591465E-31
      4.50000000000000E-01
      0.00000000000000E+00   0.00000000000000E+00   0.00000000000000E+00   0.00000000000000E+00   1.54044728302493E-08
     -7.86306161342133E-26   1.54044728302493E-08  -2.53556252210237E-32  -6.75000000000000E+00  -6.75000000000000E+00
      0.00000000000000E+00   0.00000000000000E+00  -1.54044728301571E-08  -9.22157849055621E-20  -1.54044728302493E-08
      8.08955017336301E-32
      4.60000000000000E-01
      0.00000000000000E+00   0.00000000000000E+00   0.00000000000000E+00   0.00000000000000E+00   1.57220487126097E-08
      1.16500393574945E-26   1.57220487126097E-08  -1.13723537266834E-32  -6.90000000000000E+00  -6.90000000000000E+00
      0.00000000000000E+00   0.00000000000000E+00  -1.57220487126739E-08   6.42733873594006E-20  -1.57220487126097E-08
      1.89008181620631E-32
      4.70000000000000E-01
      0.00000000000000E+00   0.00000000000000E+00   0.00000000000000E+00   0.00000000000000E+00   1.60462924465593E-08
     -5.71969552527643E-27   1.60462924465593E-08  -9.72983755852270E-32  -7.05000000000000E+00  -7.05000000000000E+00
      0.00000000000000E+00   0.00000000000000E+00  -1.60462924465745E-08   1.51967783346039E-20  -1.60462924465593E-08
      1.23233334416652E-31
      4.80000000000000E-01
      0.00000000000000E+00   0.00000000000000E+00   0.00000000000000E+00   0.00000000000000E+00   1.63793234476260E-08
     -2.59458942782996E-26   1.63793234476260E-08  -4.23010208478437E-32  -7.20000000000000E+00  -7.20000000000000E+00
      0.00000000000000E+00   0.00000000000000E+00  -1.63793234475838E-08  -4.21614627497556E-20  -1.63793234476260E-08
      7.78713708277000E-32
      4.90000000000000E-01
      0.00000000000000E+00   0.00000000000000E+00   0.00000000000000E+00   0.00000000000000E+00   1.67240502331823E-08
     -2.24711498136706E-26   1.67240502331823E-08   3.89538894489207E-32  -7.35000000000000E+00  -7.35000000000000E+00
      0.00000000000000E+00   0.00000000000000E+00  -1.67240502335450E-08   3.62763974976937E-19  -1.67240502331823E-08
      1.36085890766854E-32
      5.00000000000000E-01
      0.00000000000000E+00   0.00000000000000E+00   0.00000000000000E+00   0.00000000000000E+00   1.70830354515694E-08
      3.07908713258701E-25   1.70830354515694E-08   3.48647648106387E-33  -7.50000000000000E+00  -7.50000000000000E+00
      0.00000000000000E+00   0.00000000000000E+00  -1.70830354514887E-08  -8.06873908533112E-20  -1.70830354515694E-08
     -3.47019021455479E-31
      5.10000000000000E-01
      0.00000000000000E+00   0.00000000000000E+00   0.00000000000000E+00   0.00000000000000E+00   1.74553649859901E-08
      1.13468864575296E-25   1.74553649859901E-08  -3.27604798745390E-32  -7.65000000000000E+00  -7.65000000000000E+00
      0.00000000000000E+00   0.00000000000000E+00  -1.74553649863556E-08   3.65539598055561E-19  -1.74553649859901E-08
     -2.87292436063359E-32
      5.20000000000000E-01
      0.00000000000000E+00   0.00000000000000E+00   0.00000000000000E+00   0.00000000000000E+00   1.78340956608943E-08
      9.21429973645022E-26   1.78340956608943E-08  -1.94228056011482E-32  -7.80000000000000E+00  -7.80000000000000E+00
      0.00000000000000E+00   0.00000000000000E+00  -1.78340956609054E-08   1.10714342884929E-20  -1.78340956608943E-08
      3.68943970523472E-31
      5.30000000000000E-01
      0.00000000000000E+00   0.00000000000000E+00   0.00000000000000E+00   0.00000000000000E+00   1.82100182271284E-08
     -1.32755160058449E-25   1.82100182271284E-08   9.29144101812065E-33  -7.95000000000000E+00  -7.95000000000000E+00
      0.00000000000000E+00   0.00000000000000E+00  -1.82100182271756E-08   4.72122183475516E-20  -1.82100182271284E-08
      2.37394276115513E-31
      5.40000000000000E-01
      0.00000000000000E+00   0.00000000000000E+00   0.00000000000000E+00   0.00000000000000E+00   1.85788013591441E-08
     -1.83119863627151E-23   1.85788013591441E-08   3.53710630940228E-32  -8.10000000000000E+00  -8.10000000000000E+00
      0.00000000000000E+00   0.00000000000000E+00  -1.85788013588795E-08  -2.64656722396864E-19  -1.85788013591441E-08
     -2.58563192457023E-31
      5.50000000000000E-01
      0.00000000000000E+00   0.00000000000000E+00   0.00000000000000E+00   0.00000000000000E+00   1.89420032644573E-08
     -1.10645811168980E-21   1.89420032644562E-08  -1.38837030363588E-32  -8.25000000000000E+00  -8.25000000000000E+00
      0.00000000000000E+00   0.00000000000000E+00  -1.89420032602315E-08  -4.22475053799203E-18  -1.89420032644562E-08
     -6.19946835715670E-32
      5.60000000000000E-01
      0.00000000000000E+00   0.00000000000000E+00   0.00000000000000E+00   0.00000000000000E+00   1.93034301288891E-08
     -3.72105441035429E-28   1.93034301288891E-08  -4.73243078105333E-32  -8.40000000000000E+00  -8.40000000000000E+00
      0.00000000000000E+00   0.00000000000000E+00  -1.93034301289908E-08   1.01720857660348E-19  -1.93034301288891E-08
     -2.83512272430947E-31
      5.70000000000000E-01
      0.00000000000000E+00   0.00000000000000E+00   0.00000000000000E+00   0.00000000000000E+00   1.96674759941408E-08
     -2.44541771884154E-23   1.96674759941408E-08   3.38037164394998E-32  -8.55000000000000E+00  -8.55000000000000E+00
      0.00000000000000E+00   0.00000000000000E+00  -1.96674759948647E-08   7.23886908431634E-19  -1.96674759941408E-08
      4.58155832248410E-31
      5.80000000000000E-01
      0.00000000000000E+00   0.00000000000000E+00   0.00000000000000E+00   0.00000000000000E+00   2.00392098398449E-08
     -3.75077049790830E-25   2.00392098398449E-08   3.45705931412462E-33  -8.70000000000000E+00  -8.70000000000000E+00
      0.00000000000000E+00   0.00000000000000E+00  -2.00392098396146E-08  -2.30242225188774E-19  -2.00392098398449E-08
      2.65367486995366E-31
      5.90000000000000E-01
      0.00000000000000E+00   0.00000000000000E+00   0.00000000000000E+00   0.00000000000000E+00   2.04236364335624E-08
      2.27502988054224E-27   2.04236364335624E-08   3.97370321135629E-32  -8.85000000000000E+00  -8.85000000000000E+00
      0.00000000000000E+00   0.00000000000000E+00  -2.04236364335746E-08   1.22719700561093E-20  -2.04236364335624E-08
      2.41930472474408E-32
      6.00000000000000E-01
      0.00000000000000E+00   0.00000000000000E+00   0.00000000000000E+00   0.00000000000000E+00   2.08053939415790E-08
     -4.97678709976365E-26   2.08053939415790E-08  -4.80353034312390E-32  -9.00000000000000E+00  -9.00000000000000E+00
      0.00000000000000E+00   0.00000000000000E+00  -2.08053939415218E-08  -5.72434815551053E-20  -2.08053939415790E-08
     -2.47978734286268E-31
      6.10000000000000E-01
      0.00000000000000E+00   0.00000000000000E+00   0.00000000000000E+00   0.00000000000000E+00   2.11761411135894E-08
     -3.75490118033811E-26   2.11761411135894E-08   1.84985297520610E-32  -9.15000000000000E+00  -9.15000000000000E+00
      0.00000000000000E+00   0.00000000000000E+00  -2.11761411136863E-08   9.69047345065047E-20  -2.11761411135894E-08
      5.26198777631837E-31
      6.20000000000000E-01
      0.00000000000000E+00   0.00000000000000E+00   0.00000000000000E+00   0.00000000000000E+00   2.15509214710066E-08
      9.04091146454716E-26   2.15509214710066E-08   7.62018600828186E-32  -9.30000000000000E+00  -9.30000000000000E+00
      0.00000000000000E+00   0.00000000000000E+00  -2.15509214707170E-08  -2.89545377991747E-19  -2.15509214710066E-08
     -1.69351330732085E-31
      6.30000000000000E-01
      0.00000000000000E+00   0.00000000000000E+00   0.00000000000000E+00   0.00000000000000E+00   2.19319058987424E-08
     -3.67383442523526E-26   2.19319058987424E-08  -2.86096368664041E-33  -9.45000000000000E+00  -9.45000000000000E+00
      0.00000000000000E+00   0.00000000000000E+00  -2.19319058981661E-08  -5.76257001270482E-19  -2.19319058987424E-08
     -2.77464010619087E-31
      6.40000000000000E-01
      0.00000000000000E+00   0.00000000000000E+00   0.00000000000000E+00   0.00000000000000E+00   2.23198279002423E-08
      1.41324256333057E-24   2.23198279002423E-08  -6.24891688435999E-32  -9.60000000000000E+00  -9.60000000000000E+00
      0.00000000000000E+00   0.00000000000000E+00  -2.23198279001033E-08  -1.39068351003124E-19  -2.23198279002423E-08
      1.07356647160518E-31
      6.50000000000000E-01
      0.00000000000000E+00   0.00000000000000E+00   0.00000000000000E+00   0.00000000000000E+00   2.27156711421802E-08
     -9.08127689078813E-24   2.27156711421801E-08  -5.67290337617297E-32  -9.75000000000000E+00  -9.75000000000000E+00
      0.00000000000000E+00   0.00000000000000E+00  -2.27156711438683E-08   1.68813988224651E-18  -2.27156711421801E-08
     -2.28321883397722E-31
      6.60000000000000E-01
      0.00000000000000E+00   0.00000000000000E+00   0.00000000000000E+00   0.00000000000000E+00   2.31211298123894E-08
     -2.51000341961611E-21   2.31211298123869E-08   9.04175271959789E-33  -9.90000000000000E+00  -9.90000000000000E+00
      0.00000000000000E+00   0.00000000000000E+00  -2.31211298225664E-08   1.01794992089503E-17  -2.31211298123869E-08
     -9.14799599043855E-32
      6.70000000000000E-01
      0.00000000000000E+00   0.00000000000000E+00   0.00000000000000E+00   0.00000000000000E+00   2.35400853231008E-08
      4.66914380276815E-27   2.35400853231008E-08   1.83511439776234E-32  -1.00500000000000E+01  -1.00500000000000E+01
      0.00000000000000E+00   0.00000000000000E+00  -2.35400853234683E-08   3.67567363260251E-19  -2.35400853231008E-08
      1.68595298005603E-31
      6.80000000000000E-01
      0.00000000000000E+00   0.00000000000000E+00   0.00000000000000E+00   0.00000000000000E+00   2.39852309175918E-08
     -1.31123616948089E-27   2.39852309175918E-08   7.72408513468250E-32  -1.02000000000000E+01  -1.02000000000000E+01
      0.00000000000000E+00   0.00000000000000E+00  -2.39852309174677E-08  -1.24101763041256E-19  -2.39852309175918E-08
      2.99388959687080E-31
      6.90000000000000E-01