DF-ISE text

Info {
  version   = 1.0
  type      = xyplot
  datasets  = [
    "time"
    "Cathode OuterVoltage" "Cathode InnerVoltage" "Cathode QuasiFermiPotential" "Cathode DisplacementCurrent" "Cathode eCurrent"
    "Cathode hCurrent" "Cathode TotalCurrent" "Cathode Charge" "Anode OuterVoltage" "Anode InnerVoltage"
    "Anode QuasiFermiPotential" "Anode DisplacementCurrent" "Anode eCurrent" "Anode hCurrent" "Anode TotalCurrent"
    "Anode Charge" ]
  functions = [
    Time
    OuterVoltage InnerVoltage QuasiFermiPotential DisplacementCurrent eCurrent
    hCurrent TotalCurrent Charge OuterVoltage InnerVoltage
    QuasiFermiPotential DisplacementCurrent eCurrent hCurrent TotalCurrent
    Charge ]
}

Data {
      0.00000000000000E+00
      0.00000000000000E+00   0.00000000000000E+00   0.00000000000000E+00   0.00000000000000E+00   1.00398211724758E-20
      3.06801910048053E-21   1.31078402729563E-20  -1.97415265539117E-29   0.00000000000000E+00   0.00000000000000E+00
      0.00000000000000E+00   0.00000000000000E+00  -1.56377755373916E-23  -1.82451281318802E-19  -1.82466919094339E-19
      3.87088755959053E-31
      0.00000000000000E+00
      0.00000000000000E+00   0.00000000000000E+00   0.00000000000000E+00   0.00000000000000E+00  -1.18883815633176E-22
      2.97221401237084E-21   2.85333019673766E-21  -1.22900680016999E-28   0.00000000000000E+00   0.00000000000000E+00
      0.00000000000000E+00   0.00000000000000E+00  -1.37417404799728E-23  -1.82454126123033E-19  -1.82467867863513E-19
     -7.74177511918105E-31
      0.00000000000000E+00
      0.00000000000000E+00   0.00000000000000E+00   0.00000000000000E+00   0.00000000000000E+00  -6.65946980199031E-24
      7.58930207218279E-23   6.92335509198376E-23  -7.14178754744452E-29   0.00000000000000E+00   0.00000000000000E+00
      0.00000000000000E+00   0.00000000000000E+00  -1.28986775187696E-23   3.49953895092457E-21   3.48664027340580E-21
      0.00000000000000E+00
      5.00000000000000E-03
      7.50000000000000E-02   7.50000000000000E-02   0.00000000000000E+00   0.00000000000000E+00   5.56585441173728E-09
      4.95715095667414E-09   1.05230053684114E-08   1.28900555734364E-28   0.00000000000000E+00   0.00000000000000E+00
      0.00000000000000E+00   0.00000000000000E+00  -1.18452978222425E-13  -1.05228869154203E-08  -1.05230053683985E-08
     -1.93544377979526E-31
      1.23333333333333E-02
      1.85000000000000E-01   1.85000000000000E-01   0.00000000000000E+00   0.00000000000000E+00   1.27298693678665E-08
      9.85674331031365E-09   2.25866126781801E-08  -6.85147098047523E-29   0.00000000000000E+00   0.00000000000000E+00
      0.00000000000000E+00   0.00000000000000E+00  -1.50994499459946E-13  -2.25864616836753E-08  -2.25866126781747E-08
      1.93544377979526E-31
      2.23333333333333E-02
      3.35000000000000E-01   3.35000000000000E-01   0.00000000000000E+00   0.00000000000000E+00   2.23470457859167E-08
      1.54338637993545E-08   3.77809095852712E-08  -2.10963371997684E-29   0.00000000000000E+00   0.00000000000000E+00
      0.00000000000000E+00   0.00000000000000E+00  -1.73787388105871E-13  -3.77807357978739E-08  -3.77809095852620E-08
      0.00000000000000E+00
      3.23333333333333E-02
      4.85000000000000E-01   4.85000000000000E-01   0.00000000000000E+00   0.00000000000000E+00   3.21754890605680E-08
      2.04924146515235E-08   5.26679037120915E-08   1.08384851668535E-28   0.00000000000000E+00   0.00000000000000E+00
      0.00000000000000E+00   0.00000000000000E+00  -1.95451926271698E-13  -5.26677082601472E-08  -5.26679037120734E-08
     -1.93544377979526E-31
      4.23333333333333E-02
      6.35000000000000E-01   6.35000000000000E-01   0.00000000000000E+00   0.00000000000000E+00   4.21339848517487E-08
      2.51882141633827E-08   6.73221990151315E-08  -1.47287271642419E-28   0.00000000000000E+00   0.00000000000000E+00
      0.00000000000000E+00   0.00000000000000E+00  -2.16562414378317E-13  -6.73219824527300E-08  -6.73221990151444E-08
     -3.87088755959053E-31
      5.23333333333333E-02
      7.85000000000000E-01   7.85000000000000E-01   0.00000000000000E+00   0.00000000000000E+00   4.99762463867707E-08
      2.86584565596865E-08   7.86347029464572E-08   6.38696447332437E-30   0.00000000000000E+00   0.00000000000000E+00
      0.00000000000000E+00   0.00000000000000E+00  -2.33057465740633E-13  -7.86344698889965E-08  -7.86347029464622E-08
      0.00000000000000E+00
      6.23333333333333E-02
      9.35000000000000E-01   9.35000000000000E-01   0.00000000000000E+00   0.00000000000000E+00   5.82180069665143E-08
      3.21310270874541E-08   9.03490340539684E-08  -2.26446922236046E-29   0.00000000000000E+00   0.00000000000000E+00
      0.00000000000000E+00   0.00000000000000E+00  -2.49881866167067E-13  -9.03487841721440E-08  -9.03490340540102E-08
     -1.93544377979526E-31
      7.23333333333333E-02
      1.08500000000000E+00   1.08500000000000E+00   0.00000000000000E+00   0.00000000000000E+00   6.70182536918674E-08
      3.56723109056002E-08   1.02690564597468E-07  -8.39982600431144E-29   0.00000000000000E+00   0.00000000000000E+00
      0.00000000000000E+00   0.00000000000000E+00  -2.67199272572113E-13  -1.02690297398204E-07  -1.02690564597476E-07
     -1.93544377979526E-31
      8.23333333333333E-02
      1.23500000000000E+00   1.23500000000000E+00   0.00000000000000E+00   0.00000000000000E+00   7.51006220034637E-08
      3.87940068548897E-08   1.13894628858353E-07  -9.69657333677427E-29   0.00000000000000E+00   0.00000000000000E+00
      0.00000000000000E+00   0.00000000000000E+00  -2.82681499427553E-13  -1.13894346176848E-07  -1.13894628858348E-07
     -3.87088755959053E-31
      9.23333333333333E-02
      1.38500000000000E+00   1.38500000000000E+00   0.00000000000000E+00   0.00000000000000E+00   8.50828200922595E-08
      4.24991034106351E-08   1.27581923502895E-07   1.42448662192931E-28   0.00000000000000E+00   0.00000000000000E+00
      0.00000000000000E+00   0.00000000000000E+00  -3.01265029189235E-13  -1.27581622237866E-07  -1.27581923502895E-07
      9.67721889897631E-31
      1.02333333333333E-01
      1.53500000000000E+00   1.53500000000000E+00   0.00000000000000E+00   0.00000000000000E+00   9.75197602245584E-08
      4.69127746222054E-08   1.44432534846764E-07   1.29674733246283E-28   0.00000000000000E+00   0.00000000000000E+00
      0.00000000000000E+00   0.00000000000000E+00  -3.23825745631648E-13  -1.44432211021023E-07  -1.44432534846769E-07
     -3.87088755959053E-31
      1.12333333333333E-01
      1.68500000000000E+00   1.68500000000000E+00   0.00000000000000E+00   0.00000000000000E+00   1.08884643892807E-07
      5.07744013972837E-08   1.59659045290091E-07   3.29025442565195E-30   0.00000000000000E+00   0.00000000000000E+00
      0.00000000000000E+00   0.00000000000000E+00  -3.43972516342883E-13  -1.59658701317574E-07  -1.59659045290090E-07
     -3.87088755959053E-31
      1.22333333333333E-01
      1.83500000000000E+00   1.83500000000000E+00   0.00000000000000E+00   0.00000000000000E+00   1.17283724386653E-07
      5.35344203098596E-08   1.70818144696513E-07   5.12892601645745E-29   0.00000000000000E+00   0.00000000000000E+00
      0.00000000000000E+00   0.00000000000000E+00  -3.58409823035072E-13  -1.70817786286687E-07  -1.70818144696510E-07
     -5.80633133938579E-31
      1.32333333333333E-01
      1.98500000000000E+00   1.98500000000000E+00   0.00000000000000E+00   0.00000000000000E+00   1.21767572558400E-07
      5.49772749530452E-08   1.76744847511445E-07   4.95473607627587E-29   0.00000000000000E+00   0.00000000000000E+00
      0.00000000000000E+00   0.00000000000000E+00  -3.65436807097890E-13  -1.76744482074635E-07  -1.76744847511442E-07
      5.80633133938579E-31
      1.42333333333333E-01
      2.13500000000000E+00   2.13500000000000E+00   0.00000000000000E+00   0.00000000000000E+00   1.24428356441462E-07
      5.58234093349758E-08   1.80251765776438E-07   2.96122898308675E-29   0.00000000000000E+00   0.00000000000000E+00
      0.00000000000000E+00   0.00000000000000E+00  -3.68351470339298E-13  -1.80251397424971E-07  -1.80251765776441E-07
     -1.93544377979526E-31
      1.52333333333333E-01
      2.28500000000000E+00   2.28500000000000E+00   0.00000000000000E+00   0.00000000000000E+00   1.26972232024039E-07
      5.66256392029962E-08   1.83597871227035E-07  -6.19342009534484E-30   0.00000000000000E+00   0.00000000000000E+00
      0.00000000000000E+00   0.00000000000000E+00  -3.69635681601259E-13  -1.83597501591332E-07  -1.83597871227014E-07
      0.00000000000000E+00
      1.62333333333333E-01
      2.43500000000000E+00   2.43500000000000E+00   0.00000000000000E+00   0.00000000000000E+00   1.30188540681979E-07
      5.76313083395306E-08   1.87819849021510E-07  -2.82574791850108E-29   0.00000000000000E+00   0.00000000000000E+00
      0.00000000000000E+00   0.00000000000000E+00  -3.71402463863303E-13  -1.87819477619066E-07  -1.87819849021530E-07
     -5.80633133938579E-31
      1.72333333333333E-01
      2.58500000000000E+00   2.58500000000000E+00   0.00000000000000E+00   0.00000000000000E+00   1.35155788670103E-07
      5.91666370665053E-08   1.94322425736608E-07  -7.00630648285885E-29   0.00000000000000E+00   0.00000000000000E+00
      0.00000000000000E+00   0.00000000000000E+00  -3.76344252945819E-13  -1.94322049392366E-07  -1.94322425736619E-07
      0.00000000000000E+00
      1.82333333333333E-01
      2.73500000000000E+00   2.73500000000000E+00   0.00000000000000E+00   0.00000000000000E+00   1.43795677899708E-07
      6.17874983669420E-08   2.05583176266650E-07  -1.36642330853546E-28   0.00000000000000E+00   0.00000000000000E+00
      0.00000000000000E+00   0.00000000000000E+00  -3.87529583874122E-13  -2.05582788737047E-07  -2.05583176266631E-07
     -1.93544377979526E-31
      1.92333333333333E-01
      2.88500000000000E+00   2.88500000000000E+00   0.00000000000000E+00   0.00000000000000E+00   1.57323709628793E-07
      6.57714341865065E-08   2.23095143815300E-07  -8.67078813348278E-29   0.00000000000000E+00   0.00000000000000E+00
      0.00000000000000E+00   0.00000000000000E+00  -4.06674874329151E-13  -2.23094737140416E-07  -2.23095143815290E-07
     -3.87088755959053E-31
      2.02333333333333E-01
      3.03500000000000E+00   3.03500000000000E+00   0.00000000000000E+00   0.00000000000000E+00   1.73597553698414E-07
      7.03865470606160E-08   2.43984100759030E-07  -2.72897572951132E-29   0.00000000000000E+00   0.00000000000000E+00
      0.00000000000000E+00   0.00000000000000E+00  -4.29844155476923E-13  -2.43983670914861E-07  -2.43984100759017E-07
      0.00000000000000E+00
      2.12333333333333E-01
      3.18500000000000E+00   3.18500000000000E+00   0.00000000000000E+00   0.00000000000000E+00   1.89731982164945E-07
      7.47891971010047E-08   2.64521179265949E-07   1.64899810038556E-28   0.00000000000000E+00   0.00000000000000E+00
      0.00000000000000E+00   0.00000000000000E+00  -4.51942219506862E-13  -2.64520727323732E-07  -2.64521179265951E-07
      0.00000000000000E+00
      2.22333333333333E-01
      3.33500000000000E+00   3.33500000000000E+00   0.00000000000000E+00   0.00000000000000E+00   2.04591292441654E-07
      7.87055365824621E-08   2.83296829024116E-07  -1.09352573558432E-28   0.00000000000000E+00   0.00000000000000E+00
      0.00000000000000E+00   0.00000000000000E+00  -4.70756051874768E-13  -2.83296358268093E-07  -2.83296829024145E-07
      0.00000000000000E+00
      2.32333333333333E-01
      3.48500000000000E+00   3.48500000000000E+00   0.00000000000000E+00   0.00000000000000E+00   2.16655505088167E-07
      8.17941002068847E-08   2.98449605295052E-07  -1.31610177026078E-29   0.00000000000000E+00   0.00000000000000E+00
      0.00000000000000E+00   0.00000000000000E+00  -4.82989138033256E-13  -2.98449122305905E-07  -2.98449605295043E-07
      0.00000000000000E+00
      2.42333333333333E-01
      3.63500000000000E+00   3.63500000000000E+00   0.00000000000000E+00   0.00000000000000E+00   2.25874908112446E-07
      8.41008380971984E-08   3.09975746209645E-07  -1.18642703701450E-28   0.00000000000000E+00   0.00000000000000E+00
      0.00000000000000E+00   0.00000000000000E+00  -4.87423927108304E-13  -3.09975258785730E-07  -3.09975746209657E-07
     -3.87088755959053E-31
      2.52333333333333E-01
      3.78500000000000E+00   3.78500000000000E+00   0.00000000000000E+00   0.00000000000000E+00   2.33750455867533E-07
      8.60353602393812E-08   3.19785816106915E-07   2.49672247593589E-29   0.00000000000000E+00   0.00000000000000E+00
      0.00000000000000E+00   0.00000000000000E+00  -4.86651451948964E-13  -3.19785329455459E-07  -3.19785816106911E-07
      0.00000000000000E+00
      2.62333333333333E-01
      3.93500000000000E+00   3.93500000000000E+00   0.00000000000000E+00   0.00000000000000E+00   2.41490501714533E-07
      8.79062956406278E-08   3.29396797355161E-07   8.84497807366435E-29   0.00000000000000E+00   0.00000000000000E+00
      0.00000000000000E+00   0.00000000000000E+00  -4.83899391529214E-13  -3.29396313455761E-07  -3.29396797355153E-07
     -3.87088755959053E-31
      2.72333333333333E-01
      4.08500000000000E+00   4.08500000000000E+00   0.00000000000000E+00   0.00000000000000E+00   2.49861411440136E-07
      8.98989659983095E-08   3.39760377438445E-07   1.31997265782037E-28   0.00000000000000E+00   0.00000000000000E+00
      0.00000000000000E+00   0.00000000000000E+00  -4.79626010066374E-13  -3.39759897812454E-07  -3.39760377438464E-07
      5.80633133938579E-31
      2.82333333333333E-01
      4.23500000000000E+00   4.23500000000000E+00   0.00000000000000E+00   0.00000000000000E+00   2.59472581276311E-07
      9.21509797331909E-08   3.51623561009501E-07   1.15158904897818E-28   0.00000000000000E+00   0.00000000000000E+00
      0.00000000000000E+00   0.00000000000000E+00  -4.74133963433162E-13  -3.51623086875520E-07  -3.51623561009483E-07
      3.87088755959053E-31
      2.92333333333333E-01
      4.38500000000000E+00   4.38500000000000E+00   0.00000000000000E+00   0.00000000000000E+00   2.71096759541328E-07
      9.48276208217185E-08   3.65924380363046E-07   1.41287395925054E-29   0.00000000000000E+00   0.00000000000000E+00
      0.00000000000000E+00   0.00000000000000E+00  -4.70186455313786E-13  -3.65923910176615E-07  -3.65924380363070E-07
      1.93544377979526E-31
      3.02333333333333E-01
      4.53500000000000E+00   4.53500000000000E+00   0.00000000000000E+00   0.00000000000000E+00   2.86078013029937E-07
      9.82072314799918E-08   3.84285244509929E-07   1.95092733003362E-28   0.00000000000000E+00   0.00000000000000E+00
      0.00000000000000E+00   0.00000000000000E+00  -4.70414924744593E-13  -3.84284774095018E-07  -3.84285244509943E-07
      3.87088755959053E-31
      3.12333333333333E-01
      4.68500000000000E+00   4.68500000000000E+00   0.00000000000000E+00   0.00000000000000E+00   3.05926932984228E-07
      1.02571074334838E-07   4.08498007319066E-07  -2.59349466492565E-29   0.00000000000000E+00   0.00000000000000E+00
      0.00000000000000E+00   0.00000000000000E+00  -4.76263165225124E-13  -4.08497531055903E-07  -4.08498007319068E-07
     -1.93544377979526E-31
      3.22333333333333E-01
      4.83500000000000E+00   4.83500000000000E+00   0.00000000000000E+00   0.00000000000000E+00   3.30672391024962E-07
      1.07841093684217E-07   4.38513484709179E-07   4.18055856435777E-29   0.00000000000000E+00   0.00000000000000E+00
      0.00000000000000E+00   0.00000000000000E+00  -4.86835920023197E-13  -4.38512997873255E-07  -4.38513484709175E-07
     -1.93544377979526E-31
      3.32333333333333E-01
      4.98500000000000E+00   4.98500000000000E+00   0.00000000000000E+00   0.00000000000000E+00   3.58729469342645E-07
      1.13607217652489E-07   4.72336686995134E-07  -4.63925874016925E-28   0.00000000000000E+00   0.00000000000000E+00
      0.00000000000000E+00   0.00000000000000E+00  -4.98496916964112E-13  -4.72336188498220E-07  -4.72336686995137E-07
      3.87088755959053E-31
      3.42333333333333E-01
      5.13500000000000E+00   5.13500000000000E+00   0.00000000000000E+00   0.00000000000000E+00   3.89994832849738E-07
      1.19800373619301E-07   5.09795206469039E-07   2.69413774147501E-28   0.00000000000000E+00   0.00000000000000E+00
      0.00000000000000E+00   0.00000000000000E+00  -5.09737991404046E-13  -5.09794696731044E-07  -5.09795206469035E-07
     -1.93544377979526E-31
      3.52333333333333E-01
      5.28500000000000E+00   5.28500000000000E+00   0.00000000000000E+00   0.00000000000000E+00   4.25887484148863E-07
      1.26646583461469E-07   5.52534067610332E-07  -4.24442820909101E-28   0.00000000000000E+00   0.00000000000000E+00
      0.00000000000000E+00   0.00000000000000E+00  -5.21375206598036E-13  -5.52533546235131E-07  -5.52534067610338E-07
      1.93544377979526E-31
      3.62333333333334E-01
      5.43500000000000E+00   5.43500000000000E+00   0.00000000000000E+00   0.00000000000000E+00   4.65655929527663E-07
      1.33947985823567E-07   5.99603915351230E-07   6.67728104029366E-29   0.00000000000000E+00   0.00000000000000E+00
      0.00000000000000E+00   0.00000000000000E+00  -5.29850846873602E-13  -5.99603385500395E-07  -5.99603915351242E-07
      0.00000000000000E+00
      3.72333333333334E-01
      5.58500000000000E+00   5.58500000000000E+00   0.00000000000000E+00   0.00000000000000E+00   5.06052380769959E-07
      1.41110425396495E-07   6.47162806166454E-07  -6.96953305104274E-28   0.00000000000000E+00   0.00000000000000E+00
      0.00000000000000E+00   0.00000000000000E+00  -5.25511893065887E-13  -6.47162280654566E-07  -6.47162806166459E-07
      0.00000000000000E+00
      3.82333333333334E-01
      5.73500000000000E+00   5.73500000000000E+00   0.00000000000000E+00   0.00000000000000E+00   5.45328885881754E-07
      1.47883915529586E-07   6.93212801411340E-07  -1.16126626787716E-30   0.00000000000000E+00   0.00000000000000E+00
      0.00000000000000E+00   0.00000000000000E+00  -5.01236473457417E-13  -6.93212300174878E-07  -6.93212801411351E-07
      3.87088755959053E-31
      3.92333333333334E-01
      5.88500000000000E+00   5.88500000000000E+00   0.00000000000000E+00   0.00000000000000E+00   5.84501597215268E-07
      1.54506130817241E-07   7.39007728032509E-07  -5.84891110254128E-28   0.00000000000000E+00   0.00000000000000E+00
      0.00000000000000E+00   0.00000000000000E+00  -4.60936824642507E-13  -7.39007267095675E-07  -7.39007728032500E-07
     -3.87088755959053E-31
      4.02333333333334E-01
      6.03500000000000E+00   6.03500000000000E+00   0.00000000000000E+00   0.00000000000000E+00   6.25411629948170E-07
      1.61330739082005E-07   7.86742369030175E-07  -2.21221224030599E-28   0.00000000000000E+00   0.00000000000000E+00
      0.00000000000000E+00   0.00000000000000E+00  -4.14136660843501E-13  -7.86741954893497E-07  -7.86742369030157E-07
      3.87088755959053E-31
      4.12333333333334E-01
      6.18500000000000E+00   6.18500000000000E+00   0.00000000000000E+00   0.00000000000000E+00   6.69760845496451E-07
      1.68679043463821E-07   8.38439888960272E-07   2.64575164698012E-28   0.00000000000000E+00   0.00000000000000E+00
      0.00000000000000E+00   0.00000000000000E+00  -3.64423726655803E-13  -8.38439524536548E-07  -8.38439888960274E-07
      3.87088755959053E-31
      4.22333333333334E-01
      6.33500000000000E+00   6.33500000000000E+00   0.00000000000000E+00   0.00000000000000E+00   7.19128193325283E-07
      1.76870599879673E-07   8.95998793204956E-07   9.27077570521931E-29   0.00000000000000E+00   0.00000000000000E+00
      0.00000000000000E+00   0.00000000000000E+00  -3.10142611943304E-13  -8.95998483062329E-07  -8.95998793204940E-07
      3.87088755959053E-31
      4.32333333333334E-01
      6.48500000000000E+00   6.48500000000000E+00   0.00000000000000E+00   0.00000000000000E+00   7.75324179900063E-07
      1.86318545174868E-07   9.61642725074931E-07   3.32315696990847E-28   0.00000000000000E+00   0.00000000000000E+00
      0.00000000000000E+00   0.00000000000000E+00  -2.49267204262831E-13  -9.61642475807701E-07  -9.61642725074906E-07
     -1.93544377979526E-31
      4.42333333333334E-01
      6.63500000000000E+00   6.63500000000000E+00   0.00000000000000E+00   0.00000000000000E+00   8.41146697903219E-07
      1.97711223804289E-07   1.03885792170751E-06   7.19985086083838E-29   0.00000000000000E+00   0.00000000000000E+00
      0.00000000000000E+00   0.00000000000000E+00  -1.81268358349775E-13  -1.03885774043914E-06  -1.03885792170750E-06
      3.87088755959053E-31
      4.52333333333334E-01
      6.78500000000000E+00   6.78500000000000E+00   0.00000000000000E+00   0.00000000000000E+00   9.21788747000402E-07
      2.12339090692504E-07   1.13412783769291E-06   4.41668270549279E-28   0.00000000000000E+00   0.00000000000000E+00
      0.00000000000000E+00   0.00000000000000E+00  -1.08125188705338E-13  -1.13412772956771E-06  -1.13412783769290E-06
     -1.93544377979526E-31
      4.62333333333334E-01
      6.93500000000000E+00   6.93500000000000E+00   0.00000000000000E+00   0.00000000000000E+00   1.02652414266628E-06
      2.32536495750686E-07   1.25906063841697E-06  -3.01735685270081E-28   0.00000000000000E+00   0.00000000000000E+00
      0.00000000000000E+00   0.00000000000000E+00  -3.56851527011282E-14  -1.25906060273183E-06  -1.25906063841698E-06
     -1.93544377979526E-31
      4.72333333333334E-01
      7.08500000000000E+00   7.08500000000000E+00   0.00000000000000E+00   0.00000000000000E+00   1.16740622062400E-06
      2.61816170285619E-07   1.42922239090962E-06   2.82574791850108E-28   0.00000000000000E+00   0.00000000000000E+00
      0.00000000000000E+00   0.00000000000000E+00   2.70243930350437E-14  -1.42922241793403E-06  -1.42922239090964E-06
     -3.87088755959053E-31
      4.82333333333334E-01
      7.23500000000000E+00   7.23500000000000E+00   0.00000000000000E+00   0.00000000000000E+00   1.35535542846531E-06
      3.04878981993700E-07   1.66023441045901E-06   1.08549364389817E-27   0.00000000000000E+00   0.00000000000000E+00
      0.00000000000000E+00   0.00000000000000E+00   6.59764942626815E-14  -1.66023447643551E-06  -1.66023441045901E-06
     -1.93544377979526E-31
      4.92333333333334E-01
      7.38500000000000E+00   7.38500000000000E+00   0.00000000000000E+00   0.00000000000000E+00   1.61144159868646E-06
      3.69790922819478E-07   1.98123252150593E-06  -9.86108605805686E-29   0.00000000000000E+00   0.00000000000000E+00
      0.00000000000000E+00   0.00000000000000E+00   3.72386439471877E-14  -1.98123255874459E-06  -1.98123252150595E-06
     -1.93544377979526E-31
      5.02333333333334E-01
      7.53500000000000E+00   7.53500000000000E+00   0.00000000000000E+00   0.00000000000000E+00   1.99150634326092E-06
      4.71351889559415E-07   2.46285823282033E-06  -5.04666965581615E-28   0.00000000000000E+00   0.00000000000000E+00
      0.00000000000000E+00   0.00000000000000E+00  -1.65396444832723E-13  -2.46285806742386E-06  -2.46285823282031E-06
      7.74177511918105E-31
      5.12333333333334E-01
      7.68500000000000E+00   7.68500000000000E+00   0.00000000000000E+00   0.00000000000000E+00   2.60568759699994E-06
      6.32832189687407E-07   3.23851978668734E-06   2.33414519843309E-28   0.00000000000000E+00   0.00000000000000E+00
      0.00000000000000E+00   0.00000000000000E+00  -7.37131663709305E-13  -3.23851904955569E-06  -3.23851978668735E-06
      1.93544377979526E-31
      5.22333333333334E-01
      7.83500000000000E+00   7.83500000000000E+00   0.00000000000000E+00   0.00000000000000E+00   3.64731181022549E-06
      8.87360820674325E-07   4.53467263089982E-06   5.50633755351752E-29   0.00000000000000E+00   0.00000000000000E+00
      0.00000000000000E+00   0.00000000000000E+00  -2.00650181200411E-12  -4.53467062439801E-06  -4.53467263089982E-06
      7.74177511918105E-31
      5.32333333333334E-01
      7.98500000000000E+00   7.98500000000000E+00   0.00000000000000E+00   0.00000000000000E+00   5.44173520350132E-06
      1.27869802100085E-06   6.72043322450216E-06  -6.41212524246171E-28   0.00000000000000E+00   0.00000000000000E+00
      0.00000000000000E+00   0.00000000000000E+00  -4.50491153997332E-12  -6.72042871959062E-06  -6.72043322450216E-06
      5.80633133938579E-31
      5.42333333333334E-01
      8.13500000000001E+00   8.13500000000001E+00   0.00000000000000E+00   0.00000000000000E+00   8.50416041677755E-06
      1.85902974003681E-06   1.03631901568144E-05   9.35303206586061E-29   0.00000000000000E+00   0.00000000000000E+00
      0.00000000000000E+00   0.00000000000000E+00  -9.04363152946143E-12  -1.03631811131828E-05  -1.03631901568144E-05
      5.80633133938579E-31
      5.52333333333334E-01
      8.28500000000001E+00   8.28500000000001E+00   0.00000000000000E+00   0.00000000000000E+00   1.35781569790755E-05
      2.68199905485631E-06   1.62601560339318E-05   2.34672558300176E-28   0.00000000000000E+00   0.00000000000000E+00
      0.00000000000000E+00   0.00000000000000E+00  -1.67277813397735E-11  -1.62601393061505E-05  -1.62601560339318E-05
      1.93544377979526E-31
      5.62333333333334E-01
      8.43500000000001E+00   8.43500000000001E+00   0.00000000000000E+00   0.00000000000000E+00   2.16127221722616E-05
      3.79152326693857E-06   2.54042454392001E-05   7.60919722026508E-28   0.00000000000000E+00   0.00000000000000E+00
      0.00000000000000E+00   0.00000000000000E+00  -2.89301455532500E-11  -2.54042165090546E-05  -2.54042454392001E-05
      9.67721889897631E-31
      5.72333333333334E-01
      8.58500000000001E+00   8.58500000000001E+00   0.00000000000000E+00   0.00000000000000E+00   3.36488325519951E-05
      5.21030486368053E-06   3.88591374156756E-05  -5.67109220527259E-28   0.00000000000000E+00   0.00000000000000E+00
      0.00000000000000E+00   0.00000000000000E+00  -4.71734854137442E-11  -3.88590902421901E-05  -3.88591374156755E-05
     -1.93544377979526E-31
      5.82333333333334E-01
      8.73500000000000E+00   8.73500000000000E+00   0.00000000000000E+00   0.00000000000000E+00   5.06438654248430E-05
      6.93397407503329E-06   5.75778394998763E-05  -8.38264894076576E-28   0.00000000000000E+00   0.00000000000000E+00
      0.00000000000000E+00   0.00000000000000E+00  -7.28619369038742E-11  -5.75777666379394E-05  -5.75778394998763E-05
     -3.87088755959053E-31
      5.92333333333334E-01
      8.88500000000001E+00   8.88500000000001E+00   0.00000000000000E+00   0.00000000000000E+00   7.33241032523479E-05
      8.93427523469728E-06   8.22583784870452E-05  -1.71048472996493E-27   0.00000000000000E+00   0.00000000000000E+00
      0.00000000000000E+00   0.00000000000000E+00  -1.07019712573485E-10  -8.22582714673326E-05  -8.22583784870452E-05
      1.93544377979526E-31
      6.02333333333334E-01
      9.03500000000001E+00   9.03500000000001E+00   0.00000000000000E+00   0.00000000000000E+00   1.02142914928092E-04
      1.11684646811203E-05   1.13311379609213E-04  -2.66425932812442E-29   0.00000000000000E+00   0.00000000000000E+00
      0.00000000000000E+00   0.00000000000000E+00  -1.50159654632687E-10  -1.13311229449558E-04  -1.13311379609213E-04
      0.00000000000000E+00
      6.12333333333334E-01
      9.18500000000001E+00   9.18500000000001E+00   0.00000000000000E+00   0.00000000000000E+00   1.37297529061788E-04
      1.35886039800193E-05   1.50886133041807E-04  -5.62488348502998E-28   0.00000000000000E+00   0.00000000000000E+00
      0.00000000000000E+00   0.00000000000000E+00  -2.02488414175364E-10  -1.50885930553393E-04  -1.50886133041807E-04
      1.93544377979526E-31
      6.22333333333334E-01
      9.33500000000001E+00   9.33500000000001E+00   0.00000000000000E+00   0.00000000000000E+00   1.78795484653204E-04
      1.61487392731803E-05   1.94944223926385E-04  -4.43434362998342E-28   0.00000000000000E+00   0.00000000000000E+00
      0.00000000000000E+00   0.00000000000000E+00  -2.63872981238155E-10  -1.94943960053404E-04  -1.94944223926385E-04
      0.00000000000000E+00
      6.32333333333334E-01
      9.48500000000001E+00   9.48500000000001E+00   0.00000000000000E+00   0.00000000000000E+00   2.26519878306284E-04
      1.88079636480258E-05   2.45327841954310E-04  -6.26430572377984E-28   0.00000000000000E+00   0.00000000000000E+00
      0.00000000000000E+00   0.00000000000000E+00  -3.33849177764425E-10  -2.45327508105132E-04  -2.45327841954310E-04
      3.87088755959053E-31
      6.42333333333334E-01
      9.63500000000001E+00   9.63500000000001E+00   0.00000000000000E+00   0.00000000000000E+00   2.80337760318819E-04
      2.15307629281106E-05   3.01868523246930E-04  -5.43859702122469E-29   0.00000000000000E+00   0.00000000000000E+00
      0.00000000000000E+00   0.00000000000000E+00  -4.11707081199774E-10  -3.01868111539849E-04  -3.01868523246930E-04
      1.93544377979526E-31
      6.52333333333334E-01
      9.78500000000001E+00   9.78500000000001E+00   0.00000000000000E+00   0.00000000000000E+00   3.40070279846711E-04
      2.42866207184471E-05   3.64356900565158E-04  -1.20292669523725E-27   0.00000000000000E+00   0.00000000000000E+00
      0.00000000000000E+00   0.00000000000000E+00  -4.96681793998642E-10  -3.64356403883364E-04  -3.64356900565158E-04
      3.87088755959053E-31
      6.62333333333334E-01
      9.93500000000001E+00   9.93500000000001E+00   0.00000000000000E+00   0.00000000000000E+00   4.05511182138059E-04
      2.70496316603042E-05   4.32560813798363E-04  -7.18775433721466E-28   0.00000000000000E+00   0.00000000000000E+00
      0.00000000000000E+00   0.00000000000000E+00  -5.87934629387918E-10  -4.32560225863734E-04  -4.32560813798363E-04
      3.87088755959053E-31
      6.72333333333334E-01
      1.00850000000000E+01   1.00850000000000E+01   0.00000000000000E+00   0.00000000000000E+00   4.76440710544111E-04
      2.97980918297525E-05   5.06238802373863E-04  -2.00173272925325E-28   0.00000000000000E+00   0.00000000000000E+00
      0.00000000000000E+00   0.00000000000000E+00  -6.84579797162034E-10  -5.06238117794065E-04  -5.06238802373863E-04
      5.80633133938579E-31
      6.82333333333334E-01