DF-ISE text

Info {
  version   = 1.0
  type      = xyplot
  datasets  = [
    "time"
    "Cathode OuterVoltage" "Cathode InnerVoltage" "Cathode QuasiFermiPotential" "Cathode DisplacementCurrent" "Cathode eCurrent"
    "Cathode hCurrent" "Cathode TotalCurrent" "Cathode Charge" "Anode OuterVoltage" "Anode InnerVoltage"
    "Anode QuasiFermiPotential" "Anode DisplacementCurrent" "Anode eCurrent" "Anode hCurrent" "Anode TotalCurrent"
    "Anode Charge" ]
  functions = [
    Time
    OuterVoltage InnerVoltage QuasiFermiPotential DisplacementCurrent eCurrent
    hCurrent TotalCurrent Charge OuterVoltage InnerVoltage
    QuasiFermiPotential DisplacementCurrent eCurrent hCurrent TotalCurrent
    Charge ]
}

Data {
      0.00000000000000E+00
      0.00000000000000E+00   0.00000000000000E+00   0.00000000000000E+00   0.00000000000000E+00   1.02196222683447E-20
     -1.02196233111391E-20  -1.04279440980780E-27  -3.42886126029321E-27   0.00000000000000E+00   0.00000000000000E+00
      0.00000000000000E+00   0.00000000000000E+00  -1.58472007365583E-27   1.58472007201855E-27  -1.63727632223980E-36
     -1.16126626787716E-30
      0.00000000000000E+00
      0.00000000000000E+00   0.00000000000000E+00   0.00000000000000E+00   0.00000000000000E+00  -6.66432633320914E-17
     -2.83039639571977E-21  -6.66460937284871E-17  -2.82168967658146E-27   0.00000000000000E+00   0.00000000000000E+00
      0.00000000000000E+00   0.00000000000000E+00   2.46789312044803E-28  -2.46789312106199E-28  -6.13960762522305E-38
     -3.87088755959053E-31
      0.00000000000000E+00
      0.00000000000000E+00   0.00000000000000E+00   0.00000000000000E+00   0.00000000000000E+00   4.76056604679360E-17
     -1.30791956510265E-21   4.76043525483709E-17  -3.03997772989353E-27   0.00000000000000E+00   0.00000000000000E+00
      0.00000000000000E+00   0.00000000000000E+00   2.04838430382087E-28   5.10718811614563E-24   5.10739295457602E-24
      3.87088755959053E-31
      1.00000000000000E-02
      1.50000000000000E-01   1.50000000000000E-01   0.00000000000000E+00   0.00000000000000E+00   9.39118065888074E-08
     -9.27898135666557E-08   1.12199302215178E-09   7.59800132062678E-29   0.00000000000000E+00   0.00000000000000E+00
      0.00000000000000E+00   0.00000000000000E+00  -5.36548301633721E-13  -1.12145652543832E-09  -1.12199307373995E-09
      1.16126626787716E-30
      2.00000000000000E-02
      3.00000000000000E-01   3.00000000000000E-01   0.00000000000000E+00   0.00000000000000E+00   9.46177434573285E-08
     -9.27744477761995E-08   1.84329568112899E-09  -1.32482856151848E-27   0.00000000000000E+00   0.00000000000000E+00
      0.00000000000000E+00   0.00000000000000E+00  -7.75189235501255E-13  -1.84252046814530E-09  -1.84329565738080E-09
     -7.74177511918105E-31
      3.00000000000000E-02
      4.50000000000000E-01   4.50000000000000E-01   0.00000000000000E+00   0.00000000000000E+00   9.59370263654540E-08
     -9.27513324002897E-08   3.18569396516429E-09  -2.30417984131895E-28   0.00000000000000E+00   0.00000000000000E+00
      0.00000000000000E+00   0.00000000000000E+00  -1.21537225616824E-12  -3.18447829471608E-09  -3.18569366697224E-09
      3.87088755959053E-31
      4.00000000000000E-02
      6.00000000000000E-01   6.00000000000000E-01   0.00000000000000E+00   0.00000000000000E+00   9.68654245304127E-08
     -9.27459429996153E-08   4.11948153079750E-09   1.73282956070840E-27   0.00000000000000E+00   0.00000000000000E+00
      0.00000000000000E+00   0.00000000000000E+00  -1.52074060348914E-12  -4.11796094220342E-09  -4.11948168280691E-09
      0.00000000000000E+00
      5.00000000000000E-02
      7.50000000000000E-01   7.50000000000000E-01   0.00000000000000E+00   0.00000000000000E+00   9.70943844627494E-08
     -9.27461305484949E-08   4.34825391425447E-09  -1.29734422030038E-27   0.00000000000000E+00   0.00000000000000E+00
      0.00000000000000E+00   0.00000000000000E+00  -1.59643434677152E-12  -4.34665687571206E-09  -4.34825331005883E-09
      7.74177511918105E-31
      6.00000000000000E-02
      9.00000000000000E-01   9.00000000000000E-01   0.00000000000000E+00   0.00000000000000E+00   9.72427345972074E-08
     -9.27469244213685E-08   4.49581017583890E-09   7.96901493073900E-28   0.00000000000000E+00   0.00000000000000E+00
      0.00000000000000E+00   0.00000000000000E+00  -1.64564319934993E-12  -4.49416483836045E-09  -4.49581048155980E-09
      3.87088755959053E-31
      7.00000000000000E-02
      1.05000000000000E+00   1.05000000000000E+00   0.00000000000000E+00   0.00000000000000E+00   9.75458479383141E-08
     -9.27471570966772E-08   4.79869084163688E-09  -1.49543845047993E-27   0.00000000000000E+00   0.00000000000000E+00
      0.00000000000000E+00   0.00000000000000E+00  -1.74508941977401E-12  -4.79694555040195E-09  -4.79869063982173E-09
     -3.87088755959053E-31
      8.00000000000000E-02
      1.20000000000000E+00   1.20000000000000E+00   0.00000000000000E+00   0.00000000000000E+00   9.85642065188389E-08
     -9.27472690657633E-08   5.81693745307563E-09  -8.56176396163991E-28   0.00000000000000E+00   0.00000000000000E+00
      0.00000000000000E+00   0.00000000000000E+00  -2.07570584709492E-12  -5.81486174525386E-09  -5.81693745110095E-09
     -7.74177511918105E-31
      9.00000000000000E-02
      1.35000000000000E+00   1.35000000000000E+00   0.00000000000000E+00   0.00000000000000E+00   9.98151021745327E-08
     -9.27474730112793E-08   7.06762916325343E-09  -1.00980678238160E-27   0.00000000000000E+00   0.00000000000000E+00
      0.00000000000000E+00   0.00000000000000E+00  -2.47987054685398E-12  -7.06514922548876E-09  -7.06762909603561E-09
      7.74177511918105E-31
      1.00000000000000E-01
      1.50000000000000E+00   1.50000000000000E+00   0.00000000000000E+00   0.00000000000000E+00   1.00261706653912E-07
     -9.27475693613053E-08   7.51413729260698E-09   8.37302464415763E-29   0.00000000000000E+00   0.00000000000000E+00
      0.00000000000000E+00   0.00000000000000E+00  -2.62444631896737E-12  -7.51151263520378E-09  -7.51413708152275E-09
      1.16126626787716E-30
      1.10000000000000E-01
      1.65000000000000E+00   1.65000000000000E+00   0.00000000000000E+00   0.00000000000000E+00   1.00512146735895E-07
     -9.27476123161230E-08   7.76453441977218E-09  -1.61921211203579E-27   0.00000000000000E+00   0.00000000000000E+00
      0.00000000000000E+00   0.00000000000000E+00  -2.70595955938742E-12  -7.76182846484457E-09  -7.76453442440395E-09
      3.87088755959053E-31
      1.20000000000000E-01
      1.80000000000000E+00   1.80000000000000E+00   0.00000000000000E+00   0.00000000000000E+00   1.00782918437209E-07
     -9.27476602572461E-08   8.03525817996260E-09  -1.09212074326625E-27   0.00000000000000E+00   0.00000000000000E+00
      0.00000000000000E+00   0.00000000000000E+00  -2.79392620033102E-12  -8.03246424465286E-09  -8.03525817085319E-09
     -3.87088755959053E-31
      1.30000000000000E-01
      1.95000000000000E+00   1.95000000000000E+00   0.00000000000000E+00   0.00000000000000E+00   1.01156068643318E-07
     -9.27477322825702E-08   8.40833636074755E-09  -1.12187001677674E-27   0.00000000000000E+00   0.00000000000000E+00
      0.00000000000000E+00   0.00000000000000E+00  -2.91447224619109E-12  -8.40542202671552E-09  -8.40833649896171E-09
      3.87088755959053E-31
      1.40000000000000E-01
      2.10000000000000E+00   2.10000000000000E+00   0.00000000000000E+00   0.00000000000000E+00   1.01848802021489E-07
     -9.27478426979470E-08   9.10095932354183E-09  -8.00296080015806E-29   0.00000000000000E+00   0.00000000000000E+00
      0.00000000000000E+00   0.00000000000000E+00  -3.13667941969553E-12  -9.09782275469268E-09  -9.10095943411238E-09
      0.00000000000000E+00
      1.50000000000000E-01
      2.25000000000000E+00   2.25000000000000E+00   0.00000000000000E+00   0.00000000000000E+00   1.03166178014720E-07
     -9.27480782100239E-08   1.04180998046957E-08   1.02006203555202E-27   0.00000000000000E+00   0.00000000000000E+00
      0.00000000000000E+00   0.00000000000000E+00  -3.55681725637512E-12  -1.04145430739465E-08  -1.04180998912028E-08
      1.16126626787716E-30
      1.60000000000000E-01
      2.40000000000000E+00   2.40000000000000E+00   0.00000000000000E+00   0.00000000000000E+00   1.04448877038286E-07
     -9.27483129467249E-08   1.17005640915609E-08  -2.85599017260129E-28   0.00000000000000E+00   0.00000000000000E+00
      0.00000000000000E+00   0.00000000000000E+00  -3.96378986690415E-12  -1.16966003732374E-08  -1.17005641631043E-08
     -1.16126626787716E-30
      1.70000000000000E-01
      2.55000000000000E+00   2.55000000000000E+00   0.00000000000000E+00   0.00000000000000E+00   1.05195986489065E-07
     -9.27484469420545E-08   1.24475395470108E-08  -9.80122244173307E-28   0.00000000000000E+00   0.00000000000000E+00
      0.00000000000000E+00   0.00000000000000E+00  -4.19968597913134E-12  -1.24433399081752E-08  -1.24475395941543E-08
      0.00000000000000E+00
      1.80000000000000E-01
      2.70000000000000E+00   2.70000000000000E+00   0.00000000000000E+00   0.00000000000000E+00   1.05807738987216E-07
     -9.27485557850135E-08   1.30591832022021E-08  -3.66510868201470E-28   0.00000000000000E+00   0.00000000000000E+00
      0.00000000000000E+00   0.00000000000000E+00  -4.39165739465692E-12  -1.30547914254808E-08  -1.30591830828755E-08
      3.87088755959053E-31
      1.90000000000000E-01
      2.85000000000000E+00   2.85000000000000E+00   0.00000000000000E+00   0.00000000000000E+00   1.06499428760529E-07
     -9.27486797703090E-08   1.37507489902196E-08  -1.82562794718368E-27   0.00000000000000E+00   0.00000000000000E+00
      0.00000000000000E+00   0.00000000000000E+00  -4.60868747904642E-12  -1.37461403061167E-08  -1.37507489935957E-08
     -1.54835502383621E-30
      2.00000000000000E-01
      3.00000000000000E+00   3.00000000000000E+00   0.00000000000000E+00   0.00000000000000E+00   1.07378868682815E-07
     -9.27488374553467E-08   1.46300312274680E-08   1.48905120249433E-27   0.00000000000000E+00   0.00000000000000E+00
      0.00000000000000E+00   0.00000000000000E+00  -4.88527200981942E-12  -1.46251460534946E-08  -1.46300313255044E-08
      3.87088755959053E-31
      2.10000000000000E-01
      3.15000000000000E+00   3.15000000000000E+00   0.00000000000000E+00   0.00000000000000E+00   1.08627690203803E-07
     -9.27490615196366E-08   1.58786286841668E-08   7.57250553448752E-28   0.00000000000000E+00   0.00000000000000E+00
      0.00000000000000E+00   0.00000000000000E+00  -5.27572354588804E-12  -1.58733528940281E-08  -1.58786286175740E-08
     -3.87088755959053E-31
      2.20000000000000E-01
      3.30000000000000E+00   3.30000000000000E+00   0.00000000000000E+00   0.00000000000000E+00   1.10777202081483E-07
     -9.27494476622001E-08   1.80277544192830E-08   2.53513276585688E-27   0.00000000000000E+00   0.00000000000000E+00
      0.00000000000000E+00   0.00000000000000E+00  -5.93900742887363E-12  -1.80218154419470E-08  -1.80277544493759E-08
      0.00000000000000E+00
      2.30000000000000E-01
      3.45000000000000E+00   3.45000000000000E+00   0.00000000000000E+00   0.00000000000000E+00   1.15759143216514E-07
     -9.27571620454288E-08   2.30019811710851E-08  -1.95159665525679E-27   0.00000000000000E+00   0.00000000000000E+00
      0.00000000000000E+00   0.00000000000000E+00  -7.44115936650305E-12  -2.29945401058671E-08  -2.30019812652336E-08
      0.00000000000000E+00
      2.35000000000000E-01
      3.52500000000000E+00   3.52500000000000E+00   0.00000000000000E+00   0.00000000000000E+00   1.31186196591183E-07
     -9.27531526447493E-08   3.84330439464334E-08   8.34701239316210E-28   0.00000000000000E+00   0.00000000000000E+00
      0.00000000000000E+00   0.00000000000000E+00  -1.18841530990588E-11  -3.84211599046193E-08  -3.84330440577184E-08
     -7.74177511918105E-31
      2.35750000000000E-01
      3.53625000000000E+00   3.53625000000000E+00   0.00000000000000E+00   0.00000000000000E+00   1.39075572751708E-07
     -9.27546318939720E-08   4.63209408577358E-08   4.59028199510680E-28   0.00000000000000E+00   0.00000000000000E+00
      0.00000000000000E+00   0.00000000000000E+00  -1.40626842522180E-11  -4.63068782081393E-08  -4.63209408923915E-08
     -3.87088755959053E-31
      2.35975000000000E-01
      3.53962500000000E+00   3.53962500000000E+00   0.00000000000000E+00   0.00000000000000E+00   1.42530046205596E-07
     -9.27552870246787E-08   4.97747591809176E-08  -9.15716288724715E-29   0.00000000000000E+00   0.00000000000000E+00
      0.00000000000000E+00   0.00000000000000E+00  -1.49983872807368E-11  -4.97597607809655E-08  -4.97747591682462E-08
      3.87088755959053E-31
      2.36177500000000E-01
      3.54266250000000E+00   3.54266250000000E+00   0.00000000000000E+00   0.00000000000000E+00   1.46294383747912E-07
     -9.27559808002675E-08   5.35384029476441E-08  -1.74618846997716E-28   0.00000000000000E+00   0.00000000000000E+00
      0.00000000000000E+00   0.00000000000000E+00  -1.60057483792915E-11  -5.35223972094267E-08  -5.35384029578060E-08
      1.16126626787716E-30
      2.36366500000000E-01
      3.54549750000000E+00   3.54549750000000E+00   0.00000000000000E+00   0.00000000000000E+00   1.50522527777885E-07
     -9.27567610721009E-08   5.77657667057838E-08   4.26346038793930E-28   0.00000000000000E+00   0.00000000000000E+00
      0.00000000000000E+00   0.00000000000000E+00  -1.71224592515096E-11  -5.77486442047780E-08  -5.77657666640296E-08
      0.00000000000000E+00
      2.36542900000000E-01
      3.54814350000000E+00   3.54814350000000E+00   0.00000000000000E+00   0.00000000000000E+00   1.55250635807231E-07
     -9.27576348176312E-08   6.24930009896002E-08  -1.11756804880692E-28   0.00000000000000E+00   0.00000000000000E+00
      0.00000000000000E+00   0.00000000000000E+00  -1.83531272293773E-11  -6.24746479201567E-08  -6.24930010473860E-08
     -3.87088755959053E-31
      2.36707540000000E-01
      3.55061310000000E+00   3.55061310000000E+00   0.00000000000000E+00   0.00000000000000E+00   1.60505296063098E-07
     -9.27586058402773E-08   6.77466902228204E-08  -5.31380058914603E-28   0.00000000000000E+00   0.00000000000000E+00
      0.00000000000000E+00   0.00000000000000E+00  -1.96990606560309E-11  -6.77269911547186E-08  -6.77466902153746E-08
      3.87088755959053E-31
      2.36861204000000E-01
      3.55291806000000E+00   3.55291806000000E+00   0.00000000000000E+00   0.00000000000000E+00   1.66299431397231E-07
     -9.27596762507812E-08   7.35397551464498E-08  -1.57745004552603E-27   0.00000000000000E+00   0.00000000000000E+00
      0.00000000000000E+00   0.00000000000000E+00  -2.11573520367370E-11  -7.35185978148644E-08  -7.35397551669012E-08
      0.00000000000000E+00
      2.37004623733333E-01
      3.55506935600000E+00   3.55506935600000E+00   0.00000000000000E+00   0.00000000000000E+00   1.72629047873211E-07
     -9.27608451146063E-08   7.98682027586042E-08   6.83506365274920E-28   0.00000000000000E+00   0.00000000000000E+00
      0.00000000000000E+00   0.00000000000000E+00  -2.27204117246460E-11  -7.98454823640681E-08  -7.98682027757927E-08
     -7.74177511918105E-31
      2.37138482151111E-01
      3.55707723226667E+00   3.55707723226667E+00   0.00000000000000E+00   0.00000000000000E+00   1.79471542626524E-07
     -9.27621073344482E-08   8.67094352920761E-08   4.29840752820050E-28   0.00000000000000E+00   0.00000000000000E+00
      0.00000000000000E+00   0.00000000000000E+00  -2.43760305652842E-11  -8.66850592224851E-08  -8.67094352530504E-08
      7.74177511918105E-31
      2.37388351197630E-01
      3.56082526796445E+00   3.56082526796445E+00   0.00000000000000E+00   0.00000000000000E+00   1.95105030611755E-07
     -9.27650857091825E-08   1.02339944902572E-07  -5.26759470402615E-28   0.00000000000000E+00   0.00000000000000E+00
      0.00000000000000E+00   0.00000000000000E+00  -2.80321041789506E-11  -1.02311912781761E-07  -1.02339944885940E-07
      0.00000000000000E+00
      2.37596575403062E-01
      3.56394863104593E+00   3.56394863104593E+00   0.00000000000000E+00   0.00000000000000E+00   2.11481629445236E-07
     -9.27681148646781E-08   1.18713514580558E-07   9.15812399385069E-28   0.00000000000000E+00   0.00000000000000E+00
      0.00000000000000E+00   0.00000000000000E+00  -3.16846591576964E-11  -1.18681829952643E-07  -1.18713514611801E-07
     -7.74177511918105E-31
      2.37770095574255E-01
      3.56655143361383E+00   3.56655143361383E+00   0.00000000000000E+00   0.00000000000000E+00   2.27808896076486E-07
     -9.27711231146330E-08   1.35037772961853E-07   3.55968119411193E-27   0.00000000000000E+00   0.00000000000000E+00
      0.00000000000000E+00   0.00000000000000E+00  -3.51593855907712E-11  -1.35002613655506E-07  -1.35037773041097E-07
      0.00000000000000E+00
      2.37926263728329E-01
      3.56889395592494E+00   3.56889395592494E+00   0.00000000000000E+00   0.00000000000000E+00   2.44798504527600E-07
     -9.27742769139925E-08   1.52024227613607E-07   1.60408455870751E-28   0.00000000000000E+00   0.00000000000000E+00
      0.00000000000000E+00   0.00000000000000E+00  -3.86110198989946E-11  -1.51985616588304E-07  -1.52024227608203E-07
     -1.54835502383621E-30
      2.38207366405663E-01
      3.57311049608494E+00   3.57311049608494E+00   0.00000000000000E+00   0.00000000000000E+00   2.81376683092874E-07
     -9.27811057759485E-08   1.88595577316926E-07  -1.43499594934787E-28   0.00000000000000E+00   0.00000000000000E+00
      0.00000000000000E+00   0.00000000000000E+00  -4.55294799495167E-11  -1.88550047896703E-07  -1.88595577376652E-07
     -7.74177511918105E-31
      2.38441618636774E-01
      3.57662427955161E+00   3.57662427955161E+00   0.00000000000000E+00   0.00000000000000E+00   3.18280910477589E-07
     -9.27879660634512E-08   2.25492944414138E-07   1.44008627044324E-27   0.00000000000000E+00   0.00000000000000E+00
      0.00000000000000E+00   0.00000000000000E+00  -5.18829501220315E-11  -2.25441061467696E-07  -2.25492944417818E-07
      0.00000000000000E+00
      2.38652445644774E-01
      3.57978668467161E+00   3.57978668467161E+00   0.00000000000000E+00   0.00000000000000E+00   3.56954412413938E-07
     -9.27951547731912E-08   2.64159257640747E-07   1.03253529973375E-27   0.00000000000000E+00   0.00000000000000E+00
      0.00000000000000E+00   0.00000000000000E+00  -5.79576423891725E-11  -2.64101299942666E-07  -2.64159257585055E-07
      0.00000000000000E+00
      2.39031934259174E-01
      3.58547901388761E+00   3.58547901388761E+00   0.00000000000000E+00   0.00000000000000E+00   4.41076364907501E-07
     -9.28108379162032E-08   3.48265526991298E-07   4.37563390860842E-30   0.00000000000000E+00   0.00000000000000E+00
      0.00000000000000E+00   0.00000000000000E+00  -6.94663378651883E-11  -3.48196060666072E-07  -3.48265527003937E-07
     -7.74177511918105E-31
      2.39360824391654E-01
      3.59041236587481E+00   3.59041236587481E+00   0.00000000000000E+00   0.00000000000000E+00   5.31154004434729E-07
     -9.28276165892459E-08   4.38326387845483E-07  -2.96124977398673E-28   0.00000000000000E+00   0.00000000000000E+00
      0.00000000000000E+00   0.00000000000000E+00  -7.97364053037135E-11  -4.38246651389467E-07  -4.38326387794771E-07
     -3.87088755959053E-31
      2.39930900621286E-01
      3.59896350931929E+00   3.59896350931929E+00   0.00000000000000E+00   0.00000000000000E+00   7.33186530776374E-07
     -9.28653477863579E-08   6.40321182990016E-07  -2.35474425510701E-28   0.00000000000000E+00   0.00000000000000E+00
      0.00000000000000E+00   0.00000000000000E+00  -9.73765382834803E-11  -6.40223806447972E-07  -6.40321182986256E-07
     -7.74177511918105E-31
      2.40367959064004E-01
      3.60551938596005E+00   3.60551938596005E+00   0.00000000000000E+00   0.00000000000000E+00   9.36822017815291E-07
     -9.29032120950563E-08   8.43918805720235E-07  -1.65393334026791E-27   0.00000000000000E+00   0.00000000000000E+00
      0.00000000000000E+00   0.00000000000000E+00  -1.10153736479072E-10  -8.43808652007146E-07  -8.43918805743625E-07
     -3.87088755959053E-31
      2.41125527031381E-01
      3.61688290547072E+00   3.61688290547072E+00   0.00000000000000E+00   0.00000000000000E+00   1.42289681939384E-06
     -9.29939866947562E-08   1.32990283269909E-06  -1.19325457955918E-27   0.00000000000000E+00   0.00000000000000E+00
      0.00000000000000E+00   0.00000000000000E+00  -1.29528551769705E-10  -1.32977330413916E-06  -1.32990283269093E-06
      3.87088755959053E-31
      2.41782085936442E-01
      3.62673128904663E+00   3.62673128904663E+00   0.00000000000000E+00   0.00000000000000E+00   2.02668721885018E-06
     -9.31067084405410E-08   1.93358051040963E-06  -6.71008293769346E-28   0.00000000000000E+00   0.00000000000000E+00
      0.00000000000000E+00   0.00000000000000E+00  -1.42660831307664E-10  -1.93343784951777E-06  -1.93358051034908E-06
     -1.16126626787716E-30
      2.42351103654161E-01
      3.63526655481242E+00   3.63526655481242E+00   0.00000000000000E+00   0.00000000000000E+00   2.73326640477523E-06
     -9.32385839727253E-08   2.64002782080251E-06   1.17287411084730E-27   0.00000000000000E+00   0.00000000000000E+00
      0.00000000000000E+00   0.00000000000000E+00  -1.51007475648736E-10  -2.63987681332742E-06  -2.64002782080307E-06
      7.74177511918105E-31
      2.43375335546056E-01
      3.65063003319083E+00   3.65063003319083E+00   0.00000000000000E+00   0.00000000000000E+00   4.58589212425562E-06
     -9.35874223935190E-08   4.49230470186210E-06  -4.28130795800928E-28   0.00000000000000E+00   0.00000000000000E+00
      0.00000000000000E+00   0.00000000000000E+00  -1.59087697265650E-10  -4.49214561411184E-06  -4.49230470180911E-06
     -3.87088755959053E-31
      2.44263003185698E-01
      3.66394504778546E+00   3.66394504778546E+00   0.00000000000000E+00   0.00000000000000E+00   6.99376520548611E-06
     -9.40425437863800E-08   6.89972266169973E-06  -4.37900439700717E-28   0.00000000000000E+00   0.00000000000000E+00
      0.00000000000000E+00   0.00000000000000E+00  -1.59823129182049E-10  -6.89956283868098E-06  -6.89972266181016E-06
      3.87088755959053E-31
      2.45801627094410E-01
      3.68702440641615E+00   3.68702440641615E+00   0.00000000000000E+00   0.00000000000000E+00   1.35233219802744E-05
     -9.52770824472314E-08   1.34280448978272E-05  -2.19621189444703E-27   0.00000000000000E+00   0.00000000000000E+00
      0.00000000000000E+00   0.00000000000000E+00  -1.53096274924974E-10  -1.34278918014667E-05  -1.34280448977416E-05
     -7.74177511918105E-31
      2.47135101148628E-01
      3.70702651722942E+00   3.70702651722942E+00   0.00000000000000E+00   0.00000000000000E+00   2.20480102216997E-05
     -9.68827522884984E-08   2.19511274694112E-05  -1.15716512110031E-27   0.00000000000000E+00   0.00000000000000E+00
      0.00000000000000E+00   0.00000000000000E+00  -1.50025755528650E-10  -2.19509774436882E-05  -2.19511274694437E-05
      1.93544377979526E-31
      2.49446456175939E-01
      3.74169684263908E+00   3.74169684263908E+00   0.00000000000000E+00   0.00000000000000E+00   4.33083091855738E-05
     -1.00882191261564E-07   4.32074269943122E-05  -5.06238285099518E-28   0.00000000000000E+00   0.00000000000000E+00
      0.00000000000000E+00   0.00000000000000E+00  -1.97356676092670E-10  -4.32072296376242E-05  -4.32074269943002E-05
      0.00000000000000E+00
      2.53452804889944E-01
      3.80179207334916E+00   3.80179207334916E+00   0.00000000000000E+00   0.00000000000000E+00   9.63172839765891E-05
     -1.10863358715020E-07   9.62064206178741E-05   1.97046846066297E-27   0.00000000000000E+00   0.00000000000000E+00
      0.00000000000000E+00   0.00000000000000E+00  -6.36352470472509E-10  -9.62057842654004E-05  -9.62064206178709E-05
     -3.87088755959053E-31
      2.60130052746619E-01
      3.90195079119929E+00   3.90195079119929E+00   0.00000000000000E+00   0.00000000000000E+00   2.14749297853803E-04
     -1.33214378527549E-07   2.14616083475276E-04  -2.66771109004126E-28   0.00000000000000E+00   0.00000000000000E+00
      0.00000000000000E+00   0.00000000000000E+00  -3.03282144805111E-09  -2.14613050653767E-04  -2.14616083475215E-04
     -3.87088755959053E-31
      2.70130052746619E-01
      4.05195079119929E+00   4.05195079119929E+00   0.00000000000000E+00   0.00000000000000E+00   4.31654137352990E-04
     -1.74464614627889E-07   4.31479672738362E-04  -8.39755081832518E-28   0.00000000000000E+00   0.00000000000000E+00
      0.00000000000000E+00   0.00000000000000E+00  -1.23830492069077E-08  -4.31467289689073E-04  -4.31479672738280E-04
      1.93544377979526E-31
      2.80130052746619E-01
      4.20195079119929E+00   4.20195079119929E+00   0.00000000000000E+00   0.00000000000000E+00   6.74459636720945E-04
     -2.21314205539244E-07   6.74238322515406E-04  -1.14284652278936E-27   0.00000000000000E+00   0.00000000000000E+00
      0.00000000000000E+00   0.00000000000000E+00  -2.75808633172829E-08  -6.74210741652035E-04  -6.74238322515353E-04
     -5.80633133938579E-31
      2.90130052746619E-01
      4.35195079119929E+00   4.35195079119929E+00   0.00000000000000E+00   0.00000000000000E+00   9.32687610453273E-04
     -2.72105317992221E-07   9.32415505135281E-04   1.36490037511205E-28   0.00000000000000E+00   0.00000000000000E+00
      0.00000000000000E+00   0.00000000000000E+00  -4.39127638582287E-08  -9.32371592371490E-04  -9.32415505135348E-04
      5.80633133938579E-31
      3.00130052746619E-01
      4.50195079119929E+00   4.50195079119929E+00   0.00000000000000E+00   0.00000000000000E+00   1.20143193357290E-03
     -3.26077896562421E-07   1.20110585567634E-03   5.01116541393962E-28   0.00000000000000E+00   0.00000000000000E+00
      0.00000000000000E+00   0.00000000000000E+00  -5.92668203105752E-08  -1.20104658885604E-03  -1.20110585567635E-03
     -3.87088755959053E-31
      3.10130052746619E-01
      4.65195079119929E+00   4.65195079119929E+00   0.00000000000000E+00   0.00000000000000E+00   1.47801620346519E-03
     -3.82797439371753E-07   1.47763340602582E-03  -6.22447461210556E-28   0.00000000000000E+00   0.00000000000000E+00
      0.00000000000000E+00   0.00000000000000E+00  -7.37248257274229E-08  -1.47755968120011E-03  -1.47763340602584E-03
      0.00000000000000E+00
      3.20130052746619E-01
      4.80195079119929E+00   4.80195079119929E+00   0.00000000000000E+00   0.00000000000000E+00   1.76081331647403E-03
     -4.41960153893471E-07   1.76037135632014E-03   1.86589746333522E-27   0.00000000000000E+00   0.00000000000000E+00
      0.00000000000000E+00   0.00000000000000E+00  -8.76580991407907E-08  -1.76028369822094E-03  -1.76037135632009E-03
      1.93544377979526E-31
      3.30130052746619E-01
      4.95195079119929E+00   4.95195079119929E+00   0.00000000000000E+00   0.00000000000000E+00   2.04875169537802E-03
     -5.03320423761944E-07   2.04824837495425E-03  -1.00693976452664E-27   0.00000000000000E+00   0.00000000000000E+00
      0.00000000000000E+00   0.00000000000000E+00  -1.01248256296033E-07  -2.04814712669794E-03  -2.04824837495424E-03
      0.00000000000000E+00
      3.40130052746619E-01
      5.10195079119929E+00   5.10195079119929E+00   0.00000000000000E+00   0.00000000000000E+00   2.34108252641531E-03
     -5.66657261997634E-07   2.34051586915331E-03  -1.16788436573058E-27   0.00000000000000E+00   0.00000000000000E+00
      0.00000000000000E+00   0.00000000000000E+00  -1.14532782629175E-07  -2.34040133637063E-03  -2.34051586915325E-03
     -1.93544377979526E-31
      3.50130052746619E-01
      5.25195079119929E+00   5.25195079119929E+00   0.00000000000000E+00   0.00000000000000E+00   2.63725766881142E-03
     -6.31761373669145E-07   2.63662590743775E-03   1.06972015510920E-27   0.00000000000000E+00   0.00000000000000E+00
      0.00000000000000E+00   0.00000000000000E+00  -1.27493468513568E-07  -2.63649841396917E-03  -2.63662590743768E-03
      3.87088755959053E-31
      3.60130052746619E-01
      5.40195079119929E+00   5.40195079119929E+00   0.00000000000000E+00   0.00000000000000E+00   2.93686029619854E-03
     -6.98428890616261E-07   2.93616186730793E-03   7.21260182529096E-29   0.00000000000000E+00   0.00000000000000E+00
      0.00000000000000E+00   0.00000000000000E+00  -1.40104825658025E-07  -2.93602176248222E-03  -2.93616186730788E-03
     -1.93544377979526E-31
      3.70130052746619E-01
      5.55195079119929E+00   5.55195079119929E+00   0.00000000000000E+00   0.00000000000000E+00   3.23956311389631E-03
     -7.66458637412444E-07   3.23879665525890E-03  -1.58102293806127E-27   0.00000000000000E+00   0.00000000000000E+00
      0.00000000000000E+00   0.00000000000000E+00  -1.52351362550045E-07  -3.23864430389627E-03  -3.23879665525882E-03
      0.00000000000000E+00
      3.80130052746619E-01
      5.70195079119929E+00   5.70195079119929E+00   0.00000000000000E+00   0.00000000000000E+00   3.54510209474322E-03
     -8.35651439125054E-07   3.54426644330410E-03   6.32553327039426E-28   0.00000000000000E+00   0.00000000000000E+00
      0.00000000000000E+00   0.00000000000000E+00  -1.64229786887825E-07  -3.54410221351720E-03  -3.54426644330409E-03
      3.87088755959053E-31
      3.90130052746619E-01
      5.85195079119929E+00   5.85195079119929E+00   0.00000000000000E+00   0.00000000000000E+00   3.85325940303192E-03
     -9.05810650315554E-07   3.85235359238161E-03   4.60499557326528E-28   0.00000000000000E+00   0.00000000000000E+00
      0.00000000000000E+00   0.00000000000000E+00  -1.75745972366315E-07  -3.85217784640924E-03  -3.85235359238160E-03
      3.87088755959053E-31
      4.00130052746619E-01
      6.00195079119929E+00   6.00195079119929E+00   0.00000000000000E+00   0.00000000000000E+00   4.16385195434365E-03
     -9.76743400253582E-07   4.16287521094340E-03  -8.75724283835832E-28   0.00000000000000E+00   0.00000000000000E+00
      0.00000000000000E+00   0.00000000000000E+00  -1.86910652595744E-07  -4.16268830029077E-03  -4.16287521094337E-03
      0.00000000000000E+00
      4.10130052746619E-01