DF-ISE text

Info {
  version   = 1.0
  type      = xyplot
  datasets  = [
    "time"
    "Cathode OuterVoltage" "Cathode InnerVoltage" "Cathode QuasiFermiPotential" "Cathode DisplacementCurrent" "Cathode eCurrent"
    "Cathode hCurrent" "Cathode TotalCurrent" "Cathode Charge" "Anode OuterVoltage" "Anode InnerVoltage"
    "Anode QuasiFermiPotential" "Anode DisplacementCurrent" "Anode eCurrent" "Anode hCurrent" "Anode TotalCurrent"
    "Anode Charge" ]
  functions = [
    Time
    OuterVoltage InnerVoltage QuasiFermiPotential DisplacementCurrent eCurrent
    hCurrent TotalCurrent Charge OuterVoltage InnerVoltage
    QuasiFermiPotential DisplacementCurrent eCurrent hCurrent TotalCurrent
    Charge ]
}

Data {
      0.00000000000000E+00
      0.00000000000000E+00   0.00000000000000E+00   0.00000000000000E+00   0.00000000000000E+00  -5.48388458104617E-21
      1.85917248552866E-20   1.31078402742405E-20  -1.97415265539117E-29   0.00000000000000E+00   0.00000000000000E+00
      0.00000000000000E+00   0.00000000000000E+00  -1.65649868049411E-21  -1.80810420413847E-19  -1.82466919094341E-19
      3.87088755959053E-31
      0.00000000000000E+00
      0.00000000000000E+00   0.00000000000000E+00   0.00000000000000E+00   0.00000000000000E+00  -3.26433842771021E-21
      7.32868824328138E-21   4.06434981557117E-21  -1.75931839583389E-28   0.00000000000000E+00   0.00000000000000E+00
      0.00000000000000E+00   0.00000000000000E+00  -1.37393907167309E-21  -1.81094900836897E-19  -1.82468839908570E-19
     -7.74177511918105E-31
      0.00000000000000E+00
      0.00000000000000E+00   0.00000000000000E+00   0.00000000000000E+00   0.00000000000000E+00  -3.82751708132412E-21
      4.46026632035414E-21   6.32749239030013E-22  -1.37222963987484E-28   0.00000000000000E+00   0.00000000000000E+00
      0.00000000000000E+00   0.00000000000000E+00  -1.29005506652619E-21   4.77584964964892E-21   3.48579458312273E-21
      0.00000000000000E+00
      5.00000000000000E-03
      7.50000000000000E-02   7.50000000000000E-02   0.00000000000000E+00   0.00000000000000E+00   8.87160975399724E-09
      6.52878655415968E-07   6.61750265169965E-07  -3.32509241368826E-28   0.00000000000000E+00   0.00000000000000E+00
      0.00000000000000E+00   0.00000000000000E+00  -8.59468159929394E-11  -6.61664318353956E-07  -6.61750265169949E-07
      3.87088755959053E-31
      1.23333333333333E-02
      1.85000000000000E-01   1.85000000000000E-01   0.00000000000000E+00   0.00000000000000E+00   2.55632940545665E-08
      1.55249552782088E-06   1.57805882187545E-06   9.09658576503773E-29   0.00000000000000E+00   0.00000000000000E+00
      0.00000000000000E+00   0.00000000000000E+00  -2.05000226316054E-10  -1.57785382164911E-06  -1.57805882187542E-06
      1.93544377979526E-31
      2.23333333333333E-02
      3.35000000000000E-01   3.35000000000000E-01   0.00000000000000E+00   0.00000000000000E+00   5.10519693508601E-08
      2.63197962980727E-06   2.68303159915814E-06  -1.37416508365464E-29   0.00000000000000E+00   0.00000000000000E+00
      0.00000000000000E+00   0.00000000000000E+00  -3.48635118279868E-10  -2.68268296403986E-06  -2.68303159915814E-06
     -3.87088755959053E-31
      3.23333333333333E-02
      4.85000000000000E-01   4.85000000000000E-01   0.00000000000000E+00   0.00000000000000E+00   8.03976340334422E-08
      3.64274243732491E-06   3.72314007135835E-06   5.99987571736531E-30   0.00000000000000E+00   0.00000000000000E+00
      0.00000000000000E+00   0.00000000000000E+00  -4.83906205874822E-10  -3.72265616515249E-06  -3.72314007135836E-06
      0.00000000000000E+00
      4.23333333333333E-02
      6.35000000000000E-01   6.35000000000000E-01   0.00000000000000E+00   0.00000000000000E+00   1.13780448410627E-07
      4.60407130495137E-06   4.71785175336200E-06  -8.38047156651349E-29   0.00000000000000E+00   0.00000000000000E+00
      0.00000000000000E+00   0.00000000000000E+00  -6.13333952176836E-10  -4.71723841940982E-06  -4.71785175336199E-06
     -1.93544377979526E-31
      5.23333333333333E-02
      7.85000000000000E-01   7.85000000000000E-01   0.00000000000000E+00   0.00000000000000E+00   1.43446200397660E-07
      5.34039103579936E-06   5.48383723619702E-06  -3.87088755959053E-30   0.00000000000000E+00   0.00000000000000E+00
      0.00000000000000E+00   0.00000000000000E+00  -7.13040816762110E-10  -5.48312419538025E-06  -5.48383723619702E-06
      1.93544377979526E-31
      6.23333333333333E-02
      9.35000000000000E-01   9.35000000000000E-01   0.00000000000000E+00   0.00000000000000E+00   1.83091498089571E-07
      6.19749569330908E-06   6.38058719139865E-06   2.26446922236046E-29   0.00000000000000E+00   0.00000000000000E+00
      0.00000000000000E+00   0.00000000000000E+00  -8.29812693072729E-10  -6.37975737870559E-06  -6.38058719139866E-06
      0.00000000000000E+00
      7.23333333333333E-02
      1.08500000000000E+00   1.08500000000000E+00   0.00000000000000E+00   0.00000000000000E+00   2.26020490915089E-07
      7.00221625717886E-06   7.22823674809395E-06  -5.55472364801240E-29   0.00000000000000E+00   0.00000000000000E+00
      0.00000000000000E+00   0.00000000000000E+00  -9.40233644363603E-10  -7.22729651444959E-06  -7.22823674809395E-06
      0.00000000000000E+00
      8.23333333333333E-02
      1.23500000000000E+00   1.23500000000000E+00   0.00000000000000E+00   0.00000000000000E+00   2.61107064366870E-07
      7.58645719716109E-06   7.84756426152795E-06  -6.79340766708137E-29   0.00000000000000E+00   0.00000000000000E+00
      0.00000000000000E+00   0.00000000000000E+00  -1.02093773594378E-09  -7.84654332379201E-06  -7.84756426152796E-06
      1.93544377979526E-31
      9.23333333333333E-02
      1.38500000000000E+00   1.38500000000000E+00   0.00000000000000E+00   0.00000000000000E+00   3.04648049161627E-07
      8.23888118558382E-06   8.54352923474544E-06  -8.86433251146230E-29   0.00000000000000E+00   0.00000000000000E+00
      0.00000000000000E+00   0.00000000000000E+00  -1.11165436855616E-09  -8.54241758037687E-06  -8.54352923474542E-06
      0.00000000000000E+00
      1.02333333333333E-01
      1.53500000000000E+00   1.53500000000000E+00   0.00000000000000E+00   0.00000000000000E+00   3.83527118983064E-07
      9.26290496725005E-06   9.64643208623311E-06   8.09015499954420E-29   0.00000000000000E+00   0.00000000000000E+00
      0.00000000000000E+00   0.00000000000000E+00  -1.25546941722619E-09  -9.64517661681587E-06  -9.64643208623310E-06
      0.00000000000000E+00
      1.12333333333333E-01
      1.68500000000000E+00   1.68500000000000E+00   0.00000000000000E+00   0.00000000000000E+00   4.76092200090569E-07
      1.02748246837176E-05   1.07509168838081E-05   3.15477336106628E-29   0.00000000000000E+00   0.00000000000000E+00
      0.00000000000000E+00   0.00000000000000E+00  -1.39955816993555E-09  -1.07495173256382E-05  -1.07509168838081E-05
      0.00000000000000E+00
      1.22333333333333E-01
      1.83500000000000E+00   1.83500000000000E+00   0.00000000000000E+00   0.00000000000000E+00   5.44305546282760E-07
      1.09242093735812E-05   1.14685149198640E-05  -4.64506507150863E-30   0.00000000000000E+00   0.00000000000000E+00
      0.00000000000000E+00   0.00000000000000E+00  -1.49321027457384E-09  -1.14670217095894E-05  -1.14685149198639E-05
     -1.93544377979526E-31
      1.32333333333333E-01
      1.98500000000000E+00   1.98500000000000E+00   0.00000000000000E+00   0.00000000000000E+00   5.93982672712306E-07
      1.13568333005016E-05   1.19508159732139E-05   1.27739289466487E-29   0.00000000000000E+00   0.00000000000000E+00
      0.00000000000000E+00   0.00000000000000E+00  -1.55616997644048E-09  -1.19492598032375E-05  -1.19508159732139E-05
      7.74177511918105E-31
      1.42333333333333E-01
      2.13500000000000E+00   2.13500000000000E+00   0.00000000000000E+00   0.00000000000000E+00   6.38517681067478E-07
      1.17202647166378E-05   1.23587823977053E-05  -3.09671004767242E-30   0.00000000000000E+00   0.00000000000000E+00
      0.00000000000000E+00   0.00000000000000E+00  -1.60943567512391E-09  -1.23571729620302E-05  -1.23587823977053E-05
      5.80633133938579E-31
      1.52333333333333E-01
      2.28500000000000E+00   2.28500000000000E+00   0.00000000000000E+00   0.00000000000000E+00   6.84765018093387E-07
      1.20762802512693E-05   1.27610452693626E-05  -5.10957157865949E-29   0.00000000000000E+00   0.00000000000000E+00
      0.00000000000000E+00   0.00000000000000E+00  -1.66196516462510E-09  -1.27593833041980E-05  -1.27610452693626E-05
      1.93544377979526E-31
      1.62333333333333E-01
      2.43500000000000E+00   2.43500000000000E+00   0.00000000000000E+00   0.00000000000000E+00   7.36558988229428E-07
      1.24521187386353E-05   1.31886777268647E-05   7.74177511918105E-30   0.00000000000000E+00   0.00000000000000E+00
      0.00000000000000E+00   0.00000000000000E+00  -1.71781669278196E-09  -1.31869599101719E-05  -1.31886777268647E-05
      5.80633133938579E-31
      1.72333333333333E-01
      2.58500000000000E+00   2.58500000000000E+00   0.00000000000000E+00   0.00000000000000E+00   7.98311203355071E-07
      1.28724701832945E-05   1.36707813866496E-05   4.19991300215572E-29   0.00000000000000E+00   0.00000000000000E+00
      0.00000000000000E+00   0.00000000000000E+00  -1.78079397743197E-09  -1.36690005926722E-05  -1.36707813866496E-05
      5.80633133938579E-31
      1.82333333333333E-01
      2.73500000000000E+00   2.73500000000000E+00   0.00000000000000E+00   0.00000000000000E+00   8.79147522152605E-07
      1.33832974733165E-05   1.42624449954691E-05  -1.33158532049914E-28   0.00000000000000E+00   0.00000000000000E+00
      0.00000000000000E+00   0.00000000000000E+00  -1.85809979164068E-09  -1.42605868956775E-05  -1.42624449954692E-05
     -1.93544377979526E-31
      1.92333333333333E-01
      2.88500000000000E+00   2.88500000000000E+00   0.00000000000000E+00   0.00000000000000E+00   9.92300403288388E-07
      1.40355323813340E-05   1.50278327846224E-05   1.01997887195210E-28   0.00000000000000E+00   0.00000000000000E+00
      0.00000000000000E+00   0.00000000000000E+00  -1.95813114977570E-09  -1.50258746534727E-05  -1.50278327846224E-05
     -7.74177511918105E-31
      2.02333333333333E-01
      3.03500000000000E+00   3.03500000000000E+00   0.00000000000000E+00   0.00000000000000E+00   1.14692748612370E-06
      1.48320275637865E-05   1.59789550499102E-05  -5.69020471259807E-29   0.00000000000000E+00   0.00000000000000E+00
      0.00000000000000E+00   0.00000000000000E+00  -2.08247875372004E-09  -1.59768725711564E-05  -1.59789550499101E-05
      1.93544377979526E-31
      2.12333333333333E-01
      3.18500000000000E+00   3.18500000000000E+00   0.00000000000000E+00   0.00000000000000E+00   1.33819827237131E-06
      1.57008044817192E-05   1.70390027540905E-05   8.32240825311963E-29   0.00000000000000E+00   0.00000000000000E+00
      0.00000000000000E+00   0.00000000000000E+00  -2.22112094507745E-09  -1.70367816331454E-05  -1.70390027540905E-05
      5.80633133938579E-31
      2.22333333333333E-01
      3.33500000000000E+00   3.33500000000000E+00   0.00000000000000E+00   0.00000000000000E+00   1.53721452472427E-06
      1.65015664327434E-05   1.80387809574676E-05   1.93544377979526E-30   0.00000000000000E+00   0.00000000000000E+00
      0.00000000000000E+00   0.00000000000000E+00  -2.35193171881923E-09  -1.80364290257488E-05  -1.80387809574676E-05
     -3.87088755959053E-31
      2.32333333333333E-01
      3.48500000000000E+00   3.48500000000000E+00   0.00000000000000E+00   0.00000000000000E+00   1.72481285238510E-06
      1.71830037899535E-05   1.89078166423386E-05  -9.34819345641112E-29   0.00000000000000E+00   0.00000000000000E+00
      0.00000000000000E+00   0.00000000000000E+00  -2.46567568123798E-09  -1.89053509666573E-05  -1.89078166423385E-05
     -1.93544377979526E-31
      2.42333333333333E-01
      3.63500000000000E+00   3.63500000000000E+00   0.00000000000000E+00   0.00000000000000E+00   1.90848569747086E-06
      1.77959679073647E-05   1.97044536048355E-05   1.33932709561832E-28   0.00000000000000E+00   0.00000000000000E+00
      0.00000000000000E+00   0.00000000000000E+00  -2.56997529698088E-09  -1.97018836295386E-05  -1.97044536048355E-05
     -3.87088755959053E-31
      2.52333333333333E-01
      3.78500000000000E+00   3.78500000000000E+00   0.00000000000000E+00   0.00000000000000E+00   2.10109445348814E-06
      1.83918140482688E-05   2.04929085017569E-05  -1.57158034919375E-28   0.00000000000000E+00   0.00000000000000E+00
      0.00000000000000E+00   0.00000000000000E+00  -2.67323283717039E-09  -2.04902352689197E-05  -2.04929085017569E-05
      1.93544377979526E-31
      2.62333333333333E-01
      3.93500000000000E+00   3.93500000000000E+00   0.00000000000000E+00   0.00000000000000E+00   2.31050896650129E-06
      1.89944445439242E-05   2.13049535104255E-05   1.12255739228125E-29   0.00000000000000E+00   0.00000000000000E+00
      0.00000000000000E+00   0.00000000000000E+00  -2.77961004097287E-09  -2.13021739003845E-05  -2.13049535104255E-05
      3.87088755959053E-31
      2.72333333333333E-01
      4.08500000000000E+00   4.08500000000000E+00   0.00000000000000E+00   0.00000000000000E+00   2.54217120410675E-06
      1.96153280856834E-05   2.21574992897901E-05   5.30311595663902E-29   0.00000000000000E+00   0.00000000000000E+00
      0.00000000000000E+00   0.00000000000000E+00  -2.89132588690108E-09  -2.21546079639032E-05  -2.21574992897901E-05
     -1.93544377979526E-31
      2.82333333333333E-01
      4.23500000000000E+00   4.23500000000000E+00   0.00000000000000E+00   0.00000000000000E+00   2.80379302290961E-06
      2.02680293001495E-05   2.30718223230591E-05  -2.27608188503923E-28   0.00000000000000E+00   0.00000000000000E+00
      0.00000000000000E+00   0.00000000000000E+00  -3.01117400458635E-09  -2.30688111490545E-05  -2.30718223230591E-05
      0.00000000000000E+00
      2.92333333333333E-01
      4.38500000000000E+00   4.38500000000000E+00   0.00000000000000E+00   0.00000000000000E+00   3.10621128406026E-06
      2.09688307822815E-05   2.40750420663418E-05   5.63214139920421E-29   0.00000000000000E+00   0.00000000000000E+00
      0.00000000000000E+00   0.00000000000000E+00  -3.14271814236410E-09  -2.40718993481995E-05  -2.40750420663418E-05
      1.16126626787716E-30
      3.02333333333333E-01
      4.53500000000000E+00   4.53500000000000E+00   0.00000000000000E+00   0.00000000000000E+00   3.46591945991368E-06
      2.17399835634919E-05   2.52059030234056E-05  -1.04126875352985E-28   0.00000000000000E+00   0.00000000000000E+00
      0.00000000000000E+00   0.00000000000000E+00  -3.29105321938452E-09  -2.52026119701863E-05  -2.52059030234056E-05
      0.00000000000000E+00
      3.12333333333333E-01
      4.68500000000000E+00   4.68500000000000E+00   0.00000000000000E+00   0.00000000000000E+00   3.91209507327746E-06
      2.26187782923936E-05   2.65308733656711E-05  -5.03408927124748E-28   0.00000000000000E+00   0.00000000000000E+00
      0.00000000000000E+00   0.00000000000000E+00  -3.46492215194539E-09  -2.65274084435191E-05  -2.65308733656711E-05
      1.93544377979526E-31
      3.22333333333333E-01
      4.83500000000000E+00   4.83500000000000E+00   0.00000000000000E+00   0.00000000000000E+00   4.48337301966429E-06
      2.36433750994136E-05   2.81267481190779E-05   1.27932833844467E-28   0.00000000000000E+00   0.00000000000000E+00
      0.00000000000000E+00   0.00000000000000E+00  -3.67444227808928E-09  -2.81230736767998E-05  -2.81267481190779E-05
     -1.93544377979526E-31
      3.32333333333333E-01
      4.98500000000000E+00   4.98500000000000E+00   0.00000000000000E+00   0.00000000000000E+00   5.19425635054339E-06
      2.47987426966648E-05   2.99929990472082E-05  -9.48367452099679E-30   0.00000000000000E+00   0.00000000000000E+00
      0.00000000000000E+00   0.00000000000000E+00  -3.91959701457897E-09  -2.99890794501936E-05  -2.99929990472082E-05
      5.80633133938579E-31
      3.42333333333333E-01
      5.13500000000000E+00   5.13500000000000E+00   0.00000000000000E+00   0.00000000000000E+00   6.00715885130319E-06
      2.60026064052135E-05   3.20097652565167E-05  -2.33995152977247E-28   0.00000000000000E+00   0.00000000000000E+00
      0.00000000000000E+00   0.00000000000000E+00  -4.18468471139526E-09  -3.20055805718053E-05  -3.20097652565167E-05
      1.93544377979526E-31
      3.52333333333333E-01
      5.28500000000000E+00   5.28500000000000E+00   0.00000000000000E+00   0.00000000000000E+00   6.88396660586720E-06
      2.72011241309068E-05   3.40850907367740E-05   2.24801795023220E-28   0.00000000000000E+00   0.00000000000000E+00
      0.00000000000000E+00   0.00000000000000E+00  -4.45763815277923E-09  -3.40806330986212E-05  -3.40850907367740E-05
     -5.80633133938579E-31
      3.62333333333334E-01
      5.43500000000000E+00   5.43500000000000E+00   0.00000000000000E+00   0.00000000000000E+00   7.83450227954629E-06
      2.84135229601315E-05   3.62480252396778E-05   2.27995277259882E-28   0.00000000000000E+00   0.00000000000000E+00
      0.00000000000000E+00   0.00000000000000E+00  -4.74229032314891E-09  -3.62432829493547E-05  -3.62480252396778E-05
     -1.93544377979526E-31
      3.72333333333334E-01
      5.58500000000000E+00   5.58500000000000E+00   0.00000000000000E+00   0.00000000000000E+00   8.89474972650009E-06
      2.96826170130041E-05   3.85773667395042E-05  -6.22825808338116E-28   0.00000000000000E+00   0.00000000000000E+00
      0.00000000000000E+00   0.00000000000000E+00  -5.04903693610957E-09  -3.85723177025682E-05  -3.85773667395043E-05
      1.93544377979526E-31
      3.82333333333334E-01
      5.73500000000000E+00   5.73500000000000E+00   0.00000000000000E+00   0.00000000000000E+00   1.00826916383181E-05
      3.10241958921829E-05   4.11068875305010E-05   4.95570379816577E-28   0.00000000000000E+00   0.00000000000000E+00
      0.00000000000000E+00   0.00000000000000E+00  -5.38236482833467E-09  -4.11015051656726E-05  -4.11068875305010E-05
      3.87088755959053E-31
      3.92333333333334E-01
      5.88500000000000E+00   5.88500000000000E+00   0.00000000000000E+00   0.00000000000000E+00   1.13816626199696E-05
      3.24212691705380E-05   4.38029317905076E-05  -1.16416943354685E-28   0.00000000000000E+00   0.00000000000000E+00
      0.00000000000000E+00   0.00000000000000E+00  -5.73787785602174E-09  -4.37971939126516E-05  -4.38029317905076E-05
      9.67721889897631E-31
      4.02333333333334E-01
      6.03500000000000E+00   6.03500000000000E+00   0.00000000000000E+00   0.00000000000000E+00   1.27812323401946E-05
      3.38688670444760E-05   4.66500993846706E-05  -1.12158967039135E-28   0.00000000000000E+00   0.00000000000000E+00
      0.00000000000000E+00   0.00000000000000E+00  -6.11357698534645E-09  -4.66439858076852E-05  -4.66500993846706E-05
      0.00000000000000E+00
      4.12333333333334E-01
      6.18500000000000E+00   6.18500000000000E+00   0.00000000000000E+00   0.00000000000000E+00   1.42971213238487E-05
      3.53866236486240E-05   4.96837449724726E-05   2.22188945920496E-28   0.00000000000000E+00   0.00000000000000E+00
      0.00000000000000E+00   0.00000000000000E+00  -6.51416117203021E-09  -4.96772308113005E-05  -4.96837449724726E-05
     -1.93544377979526E-31
      4.22333333333334E-01
      6.33500000000000E+00   6.33500000000000E+00   0.00000000000000E+00   0.00000000000000E+00   1.59559328644637E-05
      3.70016687491426E-05   5.29576016136063E-05  -8.27402215862475E-29   0.00000000000000E+00   0.00000000000000E+00
      0.00000000000000E+00   0.00000000000000E+00  -6.94676990080991E-09  -5.29506548437055E-05  -5.29576016136063E-05
      0.00000000000000E+00
      4.32333333333334E-01
      6.48500000000000E+00   6.48500000000000E+00   0.00000000000000E+00   0.00000000000000E+00   1.77848595075411E-05
      3.87407845389555E-05   5.65256440464966E-05   1.42351890003942E-28   0.00000000000000E+00   0.00000000000000E+00
      0.00000000000000E+00   0.00000000000000E+00  -7.41859199471922E-09  -5.65182254545018E-05  -5.65256440464966E-05
     -3.87088755959053E-31
      4.42333333333334E-01
      6.63500000000000E+00   6.63500000000000E+00   0.00000000000000E+00   0.00000000000000E+00   1.98091899126610E-05
      4.06302739892892E-05   6.04394639019502E-05   1.03855913223814E-27   0.00000000000000E+00   0.00000000000000E+00
      0.00000000000000E+00   0.00000000000000E+00  -7.93651791873586E-09  -6.04315273840315E-05  -6.04394639019502E-05
      1.93544377979526E-31
      4.52333333333334E-01
      6.78500000000000E+00   6.78500000000000E+00   0.00000000000000E+00   0.00000000000000E+00   2.20529587262300E-05
      4.26980390148826E-05   6.47509977411126E-05   5.18408616418161E-28   0.00000000000000E+00   0.00000000000000E+00
      0.00000000000000E+00   0.00000000000000E+00  -8.50749872014951E-09  -6.47424902423924E-05  -6.47509977411126E-05
     -1.93544377979526E-31
      4.62333333333334E-01
      6.93500000000000E+00   6.93500000000000E+00   0.00000000000000E+00   0.00000000000000E+00   2.45398180172307E-05
      4.49754091096709E-05   6.95152271269016E-05  -6.84566464913584E-28   0.00000000000000E+00   0.00000000000000E+00
      0.00000000000000E+00   0.00000000000000E+00  -9.13890144869932E-09  -6.95060882254528E-05  -6.95152271269015E-05
      3.87088755959053E-31
      4.72333333333334E-01
      7.08500000000000E+00   7.08500000000000E+00   0.00000000000000E+00   0.00000000000000E+00   2.72927255174219E-05
      4.74979149886552E-05   7.47906405060771E-05   4.20281616782541E-28   0.00000000000000E+00   0.00000000000000E+00
      0.00000000000000E+00   0.00000000000000E+00  -9.83856740893197E-09  -7.47808019386681E-05  -7.47906405060771E-05
      0.00000000000000E+00
      4.82333333333334E-01
      7.23500000000000E+00   7.23500000000000E+00   0.00000000000000E+00   0.00000000000000E+00   3.03327070542129E-05
      5.03052792454659E-05   8.06379862996788E-05  -4.94699430115669E-28   0.00000000000000E+00   0.00000000000000E+00
      0.00000000000000E+00   0.00000000000000E+00  -1.06146412807954E-08  -8.06273716583980E-05  -8.06379862996788E-05
     -5.80633133938579E-31
      4.92333333333334E-01
      7.38500000000000E+00   7.38500000000000E+00   0.00000000000000E+00   0.00000000000000E+00   3.36804572367292E-05
      5.34423740927532E-05   8.71228313294825E-05   5.20924693331895E-28   0.00000000000000E+00   0.00000000000000E+00
      0.00000000000000E+00   0.00000000000000E+00  -1.14759017131741E-08  -8.71113554277693E-05  -8.71228313294824E-05
      1.93544377979526E-31
      5.02333333333334E-01
      7.53500000000000E+00   7.53500000000000E+00   0.00000000000000E+00   0.00000000000000E+00   3.73613821677358E-05
      5.69604251104238E-05   9.43218072781597E-05   3.12283853869966E-28   0.00000000000000E+00   0.00000000000000E+00
      0.00000000000000E+00   0.00000000000000E+00  -1.24325790898007E-08  -9.43093746990699E-05  -9.43218072781597E-05
     -1.93544377979526E-31
      5.12333333333334E-01
      7.68500000000000E+00   7.68500000000000E+00   0.00000000000000E+00   0.00000000000000E+00   4.14010838928042E-05
      6.09118073016432E-05   1.02312891194447E-04   3.41315510566895E-28   0.00000000000000E+00   0.00000000000000E+00
      0.00000000000000E+00   0.00000000000000E+00  -1.34950463251756E-08  -1.02299396148122E-04  -1.02312891194447E-04
     -1.93544377979526E-31
      5.22333333333334E-01
      7.83500000000000E+00   7.83500000000000E+00   0.00000000000000E+00   0.00000000000000E+00   4.58081612859268E-05
      6.53386756318760E-05   1.11146836917803E-04   7.75532322563962E-28   0.00000000000000E+00   0.00000000000000E+00
      0.00000000000000E+00   0.00000000000000E+00  -1.46699908888056E-08  -1.11132166926914E-04  -1.11146836917803E-04
     -1.93544377979526E-31
      5.32333333333334E-01
      7.98500000000000E+00   7.98500000000000E+00   0.00000000000000E+00   0.00000000000000E+00   5.05864818337348E-05
      7.02731410088881E-05   1.20859622842623E-04  -2.27075941464479E-28   0.00000000000000E+00   0.00000000000000E+00
      0.00000000000000E+00   0.00000000000000E+00  -1.59620335697679E-08  -1.20843660809053E-04  -1.20859622842623E-04
      0.00000000000000E+00
      5.42333333333334E-01
      8.13500000000001E+00   8.13500000000001E+00   0.00000000000000E+00   0.00000000000000E+00   5.57794237409676E-05
      7.57452853481198E-05   1.31524709089087E-04  -3.09235529916788E-28   0.00000000000000E+00   0.00000000000000E+00
      0.00000000000000E+00   0.00000000000000E+00  -1.73806454235023E-08  -1.31507328443664E-04  -1.31524709089087E-04
      7.74177511918105E-31
      5.52333333333334E-01
      8.28500000000001E+00   8.28500000000001E+00   0.00000000000000E+00   0.00000000000000E+00   6.14850339141610E-05
      8.17771349748972E-05   1.43262168889058E-04  -1.79560796670505E-28   0.00000000000000E+00   0.00000000000000E+00
      0.00000000000000E+00   0.00000000000000E+00  -1.89413148163012E-08  -1.43243227574242E-04  -1.43262168889058E-04
      5.80633133938579E-31
      5.62333333333334E-01
      8.43500000000001E+00   8.43500000000001E+00   0.00000000000000E+00   0.00000000000000E+00   6.78451014021466E-05
      8.83720382621795E-05   1.56217139664326E-04   4.90925314745068E-28   0.00000000000000E+00   0.00000000000000E+00
      0.00000000000000E+00   0.00000000000000E+00  -2.06626032624859E-08  -1.56196477061064E-04  -1.56217139664326E-04
      3.87088755959053E-31
      5.72333333333334E-01
      8.58500000000001E+00   8.58500000000001E+00   0.00000000000000E+00   0.00000000000000E+00   7.50340699250469E-05
      9.55098607182402E-05   1.70543930643287E-04   4.71667649136106E-28   0.00000000000000E+00   0.00000000000000E+00
      0.00000000000000E+00   0.00000000000000E+00  -2.25639260702861E-08  -1.70521366717217E-04  -1.70543930643287E-04
      3.87088755959053E-31
      5.82333333333334E-01
      8.73500000000000E+00   8.73500000000000E+00   0.00000000000000E+00   0.00000000000000E+00   8.32378449797262E-05
      1.03143274012020E-04   1.86381118991747E-04  -7.14178754744452E-28   0.00000000000000E+00   0.00000000000000E+00
      0.00000000000000E+00   0.00000000000000E+00  -2.46621241235694E-08  -1.86356456867623E-04  -1.86381118991747E-04
     -1.93544377979526E-31
      5.92333333333334E-01
      8.88500000000001E+00   8.88500000000001E+00   0.00000000000000E+00   0.00000000000000E+00   9.25808519149888E-05
      1.11192619283642E-04   2.03773471198631E-04  -1.52708933530571E-27   0.00000000000000E+00   0.00000000000000E+00
      0.00000000000000E+00   0.00000000000000E+00  -2.69610410799123E-08  -2.03746510157551E-04  -2.03773471198631E-04
      0.00000000000000E+00
      6.02333333333334E-01
      9.03500000000001E+00   9.03500000000001E+00   0.00000000000000E+00   0.00000000000000E+00   1.02984679076312E-04
      1.19554517844231E-04   2.22539196920543E-04   8.37741719429850E-28   0.00000000000000E+00   0.00000000000000E+00
      0.00000000000000E+00   0.00000000000000E+00  -2.94341255509992E-08  -2.22509762794992E-04  -2.22539196920543E-04
      0.00000000000000E+00
      6.12333333333334E-01
      9.18500000000001E+00   9.18500000000001E+00   0.00000000000000E+00   0.00000000000000E+00   1.14507658809497E-04
      1.28196156778169E-04   2.42703815587666E-04  -4.14886567246362E-28   0.00000000000000E+00   0.00000000000000E+00
      0.00000000000000E+00   0.00000000000000E+00  -3.20818219522095E-08  -2.42671733765714E-04  -2.42703815587666E-04
      5.80633133938579E-31
      6.22333333333334E-01
      9.33500000000001E+00   9.33500000000001E+00   0.00000000000000E+00   0.00000000000000E+00   1.27540997860540E-04
      1.37148938760384E-04   2.64689936620924E-04   8.09184851285152E-28   0.00000000000000E+00   0.00000000000000E+00
      0.00000000000000E+00   0.00000000000000E+00  -3.49558431942760E-08  -2.64654980777730E-04  -2.64689936620924E-04
      3.87088755959053E-31
      6.32333333333334E-01
      9.48500000000001E+00   9.48500000000001E+00   0.00000000000000E+00   0.00000000000000E+00   1.42359107905149E-04
      1.46420339755097E-04   2.88779447660246E-04   4.11717278056947E-28   0.00000000000000E+00   0.00000000000000E+00
      0.00000000000000E+00   0.00000000000000E+00  -3.80879812028228E-08  -2.88741359679043E-04  -2.88779447660246E-04
      0.00000000000000E+00
      6.42333333333334E-01
      9.63500000000001E+00   9.63500000000001E+00   0.00000000000000E+00   0.00000000000000E+00   1.59181257442881E-04
      1.56008780389474E-04   3.15190037832355E-04  -3.33815665920188E-28   0.00000000000000E+00   0.00000000000000E+00
      0.00000000000000E+00   0.00000000000000E+00  -4.15001254653926E-08  -3.15148537706890E-04  -3.15190037832355E-04
      1.93544377979526E-31
      6.52333333333334E-01
      9.78500000000001E+00   9.78500000000001E+00   0.00000000000000E+00   0.00000000000000E+00   1.78230731841494E-04
      1.65908476657736E-04   3.44139208499230E-04   6.84469692724595E-28   0.00000000000000E+00   0.00000000000000E+00
      0.00000000000000E+00   0.00000000000000E+00  -4.52124668674636E-08  -3.44093996032362E-04  -3.44139208499229E-04
     -1.93544377979526E-31
      6.62333333333334E-01
      9.93500000000001E+00   9.93500000000001E+00   0.00000000000000E+00   0.00000000000000E+00   1.99749110991303E-04
      1.76108156920524E-04   3.75857267911827E-04  -1.58895095711742E-27   0.00000000000000E+00   0.00000000000000E+00
      0.00000000000000E+00   0.00000000000000E+00  -4.92449407548191E-08  -3.75808022971073E-04  -3.75857267911827E-04
      0.00000000000000E+00
      6.72333333333334E-01
      1.00850000000000E+01   1.00850000000000E+01   0.00000000000000E+00   0.00000000000000E+00   2.23993661637032E-04
      1.86589522249796E-04   4.10583183886828E-04  -1.97502360509208E-27   0.00000000000000E+00   0.00000000000000E+00
      0.00000000000000E+00   0.00000000000000E+00  -5.36164472351541E-08  -4.10529567439592E-04  -4.10583183886827E-04
      5.80633133938579E-31
      6.82333333333334E-01