DF-ISE text

Info {
  version   = 1.0
  type      = xyplot
  datasets  = [
    "time"
    "Cathode OuterVoltage" "Cathode InnerVoltage" "Cathode QuasiFermiPotential" "Cathode DisplacementCurrent" "Cathode eCurrent"
    "Cathode hCurrent" "Cathode TotalCurrent" "Cathode Charge" "Anode OuterVoltage" "Anode InnerVoltage"
    "Anode QuasiFermiPotential" "Anode DisplacementCurrent" "Anode eCurrent" "Anode hCurrent" "Anode TotalCurrent"
    "Anode Charge" ]
  functions = [
    Time
    OuterVoltage InnerVoltage QuasiFermiPotential DisplacementCurrent eCurrent
    hCurrent TotalCurrent Charge OuterVoltage InnerVoltage
    QuasiFermiPotential DisplacementCurrent eCurrent hCurrent TotalCurrent
    Charge ]
}

Data {
      0.00000000000000E+00
      0.00000000000000E+00   0.00000000000000E+00   0.00000000000000E+00   0.00000000000000E+00   1.82677125264000E-06
     -1.82677125263998E-06   1.85257241908142E-20  -1.97415265539117E-29   0.00000000000000E+00   0.00000000000000E+00
      0.00000000000000E+00   0.00000000000000E+00  -1.65649868049411E-21  -1.80810420413847E-19  -1.82466919094341E-19
      3.87088755959053E-31
      0.00000000000000E+00
      0.00000000000000E+00   0.00000000000000E+00   0.00000000000000E+00   0.00000000000000E+00   1.04717679741686E-08
     -4.45301322531389E-07  -4.34829554557220E-07  -9.11594020283569E-29   0.00000000000000E+00   0.00000000000000E+00
      0.00000000000000E+00   0.00000000000000E+00   1.22513020681025E-16  -1.84359397039582E-19   1.22328661283985E-16
     -9.67721889897631E-31
      0.00000000000000E+00
      0.00000000000000E+00   0.00000000000000E+00   0.00000000000000E+00   0.00000000000000E+00   4.27726565788351E-09
     -1.72415191845210E-07  -1.68137926187326E-07   6.98695204506090E-29   0.00000000000000E+00   0.00000000000000E+00
      0.00000000000000E+00   0.00000000000000E+00   3.87527301062095E-11   1.68099173457199E-07   1.68137926187306E-07
     -1.93544377979526E-31
      5.00000000000000E-03
      7.50000000000000E-02   7.50000000000000E-02   0.00000000000000E+00   0.00000000000000E+00   1.49113588655874E-08
      5.79042492588400E-07   5.93953851453987E-07   3.15283791728648E-28   0.00000000000000E+00   0.00000000000000E+00
      0.00000000000000E+00   0.00000000000000E+00  -7.71402891783163E-11  -5.93876711164826E-07  -5.93953851454004E-07
      1.93544377979526E-31
      1.20000000000000E-02
      1.80000000000000E-01   1.80000000000000E-01   0.00000000000000E+00   0.00000000000000E+00   3.28654757334182E-08
      1.48906768413116E-06   1.52193315986458E-06  -2.79090993046477E-28   0.00000000000000E+00   0.00000000000000E+00
      0.00000000000000E+00   0.00000000000000E+00  -1.97706474498751E-10  -1.52173545339009E-06  -1.52193315986459E-06
      1.93544377979526E-31
      2.20000000000000E-02
      3.30000000000000E-01   3.30000000000000E-01   0.00000000000000E+00   0.00000000000000E+00   6.03335533004677E-08
      2.60032277397169E-06   2.66065632727215E-06  -3.09671004767242E-30   0.00000000000000E+00   0.00000000000000E+00
      0.00000000000000E+00   0.00000000000000E+00  -3.45725816182145E-10  -2.66031060145595E-06  -2.66065632727213E-06
      0.00000000000000E+00
      3.20000000000000E-02
      4.80000000000000E-01   4.80000000000000E-01   0.00000000000000E+00   0.00000000000000E+00   9.14033357535187E-08
      3.62618120919534E-06   3.71758454494886E-06   1.36448786475566E-28   0.00000000000000E+00   0.00000000000000E+00
      0.00000000000000E+00   0.00000000000000E+00  -4.83183492219741E-10  -3.71710136145664E-06  -3.71758454494886E-06
      3.87088755959053E-31
      4.20000000000000E-02
      6.30000000000000E-01   6.30000000000000E-01   0.00000000000000E+00   0.00000000000000E+00   1.26979285359892E-07
      4.60977673897335E-06   4.73675602433324E-06   4.04507749977210E-29   0.00000000000000E+00   0.00000000000000E+00
      0.00000000000000E+00   0.00000000000000E+00  -6.15794240239875E-10  -4.73614023009299E-06  -4.73675602433323E-06
     -5.80633133938579E-31
      5.20000000000000E-02
      7.80000000000000E-01   7.80000000000000E-01   0.00000000000000E+00   0.00000000000000E+00   1.58587545096057E-07
      5.36264937301437E-06   5.52123691811043E-06   4.29668519114548E-29   0.00000000000000E+00   0.00000000000000E+00
      0.00000000000000E+00   0.00000000000000E+00  -7.17909904170275E-10  -5.52051900820625E-06  -5.52123691811042E-06
      3.87088755959053E-31
      6.20000000000000E-02
      9.30000000000000E-01   9.30000000000000E-01   0.00000000000000E+00   0.00000000000000E+00   2.00036342804321E-07
      6.22289925757783E-06   6.42293560038215E-06   1.64512721282597E-29   0.00000000000000E+00   0.00000000000000E+00
      0.00000000000000E+00   0.00000000000000E+00  -8.35328273129131E-10  -6.42210027210906E-06  -6.42293560038219E-06
     -3.87088755959053E-31
      7.20000000000000E-02
      1.08000000000000E+00   1.08000000000000E+00   0.00000000000000E+00   0.00000000000000E+00   2.45491290503067E-07
      7.04108904022955E-06   7.28658033073262E-06  -1.36448786475566E-28   0.00000000000000E+00   0.00000000000000E+00
      0.00000000000000E+00   0.00000000000000E+00  -9.47835362259587E-10  -7.28563249537035E-06  -7.28658033073261E-06
     -3.87088755959053E-31
      8.20000000000000E-02
      1.23000000000000E+00   1.23000000000000E+00   0.00000000000000E+00   0.00000000000000E+00   2.82780248793238E-07
      7.63676249360377E-06   7.91954274239700E-06   1.35481064585668E-30   0.00000000000000E+00   0.00000000000000E+00
      0.00000000000000E+00   0.00000000000000E+00  -1.03031854337460E-09  -7.91851242385364E-06  -7.91954274239701E-06
     -1.93544377979526E-31
      9.20000000000000E-02
      1.38000000000000E+00   1.38000000000000E+00   0.00000000000000E+00   0.00000000000000E+00   3.28217906642400E-07
      8.28987659974932E-06   8.61809450639172E-06   9.32883901861317E-29   0.00000000000000E+00   0.00000000000000E+00
      0.00000000000000E+00   0.00000000000000E+00  -1.12137523414273E-09  -8.61697313115755E-06  -8.61809450639169E-06
     -3.87088755959053E-31
      1.02000000000000E-01
      1.53000000000000E+00   1.53000000000000E+00   0.00000000000000E+00   0.00000000000000E+00   4.10675104753838E-07
      9.31756167030532E-06   9.72823677505916E-06  -5.41924258342674E-29   0.00000000000000E+00   0.00000000000000E+00
      0.00000000000000E+00   0.00000000000000E+00  -1.26613910620006E-09  -9.72697063595297E-06  -9.72823677505917E-06
     -1.93544377979526E-31
      1.12000000000000E-01
      1.68000000000000E+00   1.68000000000000E+00   0.00000000000000E+00   0.00000000000000E+00   5.09036787765979E-07
      1.03491200807267E-05   1.08581568684927E-05  -1.29674733246283E-29   0.00000000000000E+00   0.00000000000000E+00
      0.00000000000000E+00   0.00000000000000E+00  -1.41355193734979E-09  -1.08567433165553E-05  -1.08581568684926E-05
      1.93544377979526E-31
      1.22000000000000E-01
      1.83000000000000E+00   1.83000000000000E+00   0.00000000000000E+00   0.00000000000000E+00   5.81789499965916E-07
      1.10123920089323E-05   1.15941815088982E-05   2.74833016730927E-29   0.00000000000000E+00   0.00000000000000E+00
      0.00000000000000E+00   0.00000000000000E+00  -1.50961348816430E-09  -1.15926718954100E-05  -1.15941815088981E-05
     -5.80633133938579E-31
      1.32000000000000E-01
      1.98000000000000E+00   1.98000000000000E+00   0.00000000000000E+00   0.00000000000000E+00   6.34232005294966E-07
      1.14494058740707E-05   1.20836378793656E-05  -6.77405322928342E-30   0.00000000000000E+00   0.00000000000000E+00
      0.00000000000000E+00   0.00000000000000E+00  -1.57351063995397E-09  -1.20820643687257E-05  -1.20836378793656E-05
      9.67721889897631E-31
      1.42000000000000E-01
      2.13000000000000E+00   2.13000000000000E+00   0.00000000000000E+00   0.00000000000000E+00   6.80803860014006E-07
      1.18131314247124E-05   1.24939352847264E-05   2.70962129171337E-29   0.00000000000000E+00   0.00000000000000E+00
      0.00000000000000E+00   0.00000000000000E+00  -1.62708361521312E-09  -1.24923082011112E-05  -1.24939352847264E-05
      1.93544377979526E-31
      1.52000000000000E-01
      2.28000000000000E+00   2.28000000000000E+00   0.00000000000000E+00   0.00000000000000E+00   7.29001217519115E-07
      1.21683988759837E-05   1.28974000935028E-05   6.75469879148547E-29   0.00000000000000E+00   0.00000000000000E+00
      0.00000000000000E+00   0.00000000000000E+00  -1.67977296412598E-09  -1.28957203205387E-05  -1.28974000935028E-05
      1.93544377979526E-31
      1.62000000000000E-01
      2.43000000000000E+00   2.43000000000000E+00   0.00000000000000E+00   0.00000000000000E+00   7.82992135340790E-07
      1.25437571631629E-05   1.33267492985037E-05  -1.76125383961369E-29   0.00000000000000E+00   0.00000000000000E+00
      0.00000000000000E+00   0.00000000000000E+00  -1.73585180527033E-09  -1.33250134466984E-05  -1.33267492985037E-05
      0.00000000000000E+00
      1.72000000000000E-01
      2.58000000000000E+00   2.58000000000000E+00   0.00000000000000E+00   0.00000000000000E+00   8.47344237945681E-07
      1.29636971542687E-05   1.38110413922144E-05   1.95479821759322E-29   0.00000000000000E+00   0.00000000000000E+00
      0.00000000000000E+00   0.00000000000000E+00  -1.79911847758747E-09  -1.38092422737368E-05  -1.38110413922144E-05
     -1.93544377979526E-31
      1.82000000000000E-01
      2.73000000000000E+00   2.73000000000000E+00   0.00000000000000E+00   0.00000000000000E+00   9.31459130270447E-07
      1.34736405064656E-05   1.44050996367360E-05   7.33533192542405E-29   0.00000000000000E+00   0.00000000000000E+00
      0.00000000000000E+00   0.00000000000000E+00  -1.87674152327937E-09  -1.44032228952128E-05  -1.44050996367360E-05
     -3.87088755959053E-31
      1.92000000000000E-01
      2.88000000000000E+00   2.88000000000000E+00   0.00000000000000E+00   0.00000000000000E+00   1.04944233891716E-06
      1.41266003195936E-05   1.51760426585108E-05  -1.70319052621983E-28   0.00000000000000E+00   0.00000000000000E+00
      0.00000000000000E+00   0.00000000000000E+00  -1.97750467547689E-09  -1.51740651538353E-05  -1.51760426585108E-05
     -3.87088755959053E-31
      2.02000000000000E-01
      3.03000000000000E+00   3.03000000000000E+00   0.00000000000000E+00   0.00000000000000E+00   1.21170375362817E-06
      1.49294623015543E-05   1.61411660551825E-05   9.69657333677427E-29   0.00000000000000E+00   0.00000000000000E+00
      0.00000000000000E+00   0.00000000000000E+00  -2.10369036929372E-09  -1.61390623648132E-05  -1.61411660551825E-05
     -1.93544377979526E-31
      2.12000000000000E-01
      3.18000000000000E+00   3.18000000000000E+00   0.00000000000000E+00   0.00000000000000E+00   1.41369708997501E-06
      1.58106095170728E-05   1.72243066070478E-05   1.29287644490324E-28   0.00000000000000E+00   0.00000000000000E+00
      0.00000000000000E+00   0.00000000000000E+00  -2.24536228166555E-09  -1.72220612447662E-05  -1.72243066070478E-05
      1.93544377979526E-31
      2.22000000000000E-01
      3.33000000000000E+00   3.33000000000000E+00   0.00000000000000E+00   0.00000000000000E+00   1.62428242074829E-06
      1.66239777406563E-05   1.82482601614046E-05   8.82562363586640E-29   0.00000000000000E+00   0.00000000000000E+00
      0.00000000000000E+00   0.00000000000000E+00  -2.37934614866380E-09  -1.82458808152559E-05  -1.82482601614046E-05
     -5.80633133938579E-31
      2.32000000000000E-01
      3.48000000000000E+00   3.48000000000000E+00   0.00000000000000E+00   0.00000000000000E+00   1.82207364068626E-06
      1.73135510314994E-05   1.91356246721857E-05   1.70125508244004E-28   0.00000000000000E+00   0.00000000000000E+00
      0.00000000000000E+00   0.00000000000000E+00  -2.49549855311091E-09  -1.91331291736326E-05  -1.91356246721857E-05
      7.74177511918105E-31
      2.42000000000000E-01
      3.63000000000000E+00   3.63000000000000E+00   0.00000000000000E+00   0.00000000000000E+00   2.01469417218468E-06
      1.79307704874085E-05   1.99454646595932E-05   1.82899437190652E-28   0.00000000000000E+00   0.00000000000000E+00
      0.00000000000000E+00   0.00000000000000E+00  -2.60153592881309E-09  -1.99428631236644E-05  -1.99454646595932E-05
     -1.93544377979526E-31
      2.52000000000000E-01
      3.78000000000000E+00   3.78000000000000E+00   0.00000000000000E+00   0.00000000000000E+00   2.21584971411676E-06
      1.85287441501253E-05   2.07445938642421E-05   1.73415762669656E-28   0.00000000000000E+00   0.00000000000000E+00
      0.00000000000000E+00   0.00000000000000E+00  -2.70620077559968E-09  -2.07418876634664E-05  -2.07445938642420E-05
      0.00000000000000E+00
      2.62000000000000E-01
      3.93000000000000E+00   3.93000000000000E+00   0.00000000000000E+00   0.00000000000000E+00   2.43396113526872E-06
      1.91324953157581E-05   2.15664564510268E-05   4.18249400813756E-28   0.00000000000000E+00   0.00000000000000E+00
      0.00000000000000E+00   0.00000000000000E+00  -2.81387397849634E-09  -2.15636425770483E-05  -2.15664564510268E-05
      1.93544377979526E-31
      2.72000000000000E-01
      4.08000000000000E+00   4.08000000000000E+00   0.00000000000000E+00   0.00000000000000E+00   2.67470360789363E-06
      1.97538651762879E-05   2.24285687841816E-05  -4.77280436097512E-28   0.00000000000000E+00   0.00000000000000E+00
      0.00000000000000E+00   0.00000000000000E+00  -2.92685404344044E-09  -2.24256419301381E-05  -2.24285687841816E-05
      1.93544377979526E-31
      2.82000000000000E-01
      4.23000000000000E+00   4.23000000000000E+00   0.00000000000000E+00   0.00000000000000E+00   2.94614983481874E-06
      2.04068602089561E-05   2.33530100437749E-05   1.67028798196331E-28   0.00000000000000E+00   0.00000000000000E+00
      0.00000000000000E+00   0.00000000000000E+00  -3.04804010868398E-09  -2.33499620036662E-05  -2.33530100437749E-05
      3.87088755959053E-31
      2.92000000000000E-01
      4.38000000000000E+00   4.38000000000000E+00   0.00000000000000E+00   0.00000000000000E+00   3.25963245352003E-06
      2.11082223271545E-05   2.43678547806745E-05  -3.21283667446014E-28   0.00000000000000E+00   0.00000000000000E+00
      0.00000000000000E+00   0.00000000000000E+00  -3.18112164667276E-09  -2.43646736590278E-05  -2.43678547806745E-05
      1.93544377979526E-31
      3.02000000000000E-01
      4.53000000000000E+00   4.53000000000000E+00   0.00000000000000E+00   0.00000000000000E+00   3.63204612551859E-06
      2.18800937740234E-05   2.55121398995420E-05  -8.36111712871554E-29   0.00000000000000E+00   0.00000000000000E+00
      0.00000000000000E+00   0.00000000000000E+00  -3.33123276336074E-09  -2.55088086667786E-05  -2.55121398995420E-05
     -1.93544377979526E-31
      3.12000000000000E-01
      4.68000000000000E+00   4.68000000000000E+00   0.00000000000000E+00   0.00000000000000E+00   4.09311700489472E-06
      2.27593966422497E-05   2.68525136471444E-05   1.61222466856945E-28   0.00000000000000E+00   0.00000000000000E+00
      0.00000000000000E+00   0.00000000000000E+00  -3.50714134301848E-09  -2.68490065058014E-05  -2.68525136471444E-05
      5.80633133938579E-31
      3.22000000000000E-01
      4.83000000000000E+00   4.83000000000000E+00   0.00000000000000E+00   0.00000000000000E+00   4.68267452041698E-06
      2.37849314336544E-05   2.84676059540713E-05  -5.18698932985130E-28   0.00000000000000E+00   0.00000000000000E+00
      0.00000000000000E+00   0.00000000000000E+00  -3.71920734593879E-09  -2.84638867467254E-05  -2.84676059540713E-05
      5.80633133938579E-31
      3.32000000000000E-01
      4.98000000000000E+00   4.98000000000000E+00   0.00000000000000E+00   0.00000000000000E+00   5.41691248202041E-06
      2.49441669045867E-05   3.03610793866071E-05  -4.47861690644624E-28   0.00000000000000E+00   0.00000000000000E+00
      0.00000000000000E+00   0.00000000000000E+00  -3.96796601742305E-09  -3.03571114205897E-05  -3.03610793866071E-05
      0.00000000000000E+00
      3.42000000000000E-01
      5.13000000000000E+00   5.13000000000000E+00   0.00000000000000E+00   0.00000000000000E+00   6.25806136160034E-06
      2.61558096525952E-05   3.24138710141955E-05   1.71867407645819E-28   0.00000000000000E+00   0.00000000000000E+00
      0.00000000000000E+00   0.00000000000000E+00  -4.23782100303344E-09  -3.24096331931924E-05  -3.24138710141955E-05
      0.00000000000000E+00
      3.52000000000000E-01
      5.28000000000000E+00   5.28000000000000E+00   0.00000000000000E+00   0.00000000000000E+00   7.16599438068859E-06
      2.73640936306003E-05   3.45300880112889E-05   3.03671129049877E-28   0.00000000000000E+00   0.00000000000000E+00
      0.00000000000000E+00   0.00000000000000E+00  -4.51618781155819E-09  -3.45255718234773E-05  -3.45300880112889E-05
      3.87088755959053E-31
      3.62000000000000E-01
      5.43000000000000E+00   5.43000000000000E+00   0.00000000000000E+00   0.00000000000000E+00   8.15072172707128E-06
      2.85877847138773E-05   3.67385064409486E-05   1.67125570385321E-28   0.00000000000000E+00   0.00000000000000E+00
      0.00000000000000E+00   0.00000000000000E+00  -4.80686498729015E-09  -3.67336995759613E-05  -3.67385064409486E-05
      3.87088755959053E-31
      3.72000000000000E-01
      5.58000000000000E+00   5.58000000000000E+00   0.00000000000000E+00   0.00000000000000E+00   9.25043469127652E-06
      2.98708007000573E-05   3.91212353913338E-05   2.47736803813794E-29   0.00000000000000E+00   0.00000000000000E+00
      0.00000000000000E+00   0.00000000000000E+00  -5.12068708338359E-09  -3.91161147042504E-05  -3.91212353913338E-05
      3.87088755959053E-31
      3.82000000000000E-01
      5.73000000000000E+00   5.73000000000000E+00   0.00000000000000E+00   0.00000000000000E+00   1.04836377857029E-05
      3.12286261847140E-05   4.17122639704169E-05   1.66835253818352E-28   0.00000000000000E+00   0.00000000000000E+00
      0.00000000000000E+00   0.00000000000000E+00  -5.46217236705159E-09  -4.17068017980498E-05  -4.17122639704169E-05
      3.87088755959053E-31
      3.92000000000000E-01
      5.88000000000000E+00   5.88000000000000E+00   0.00000000000000E+00   0.00000000000000E+00   1.18306630047817E-05
      3.26416595851808E-05   4.44723225899626E-05   1.50577526068071E-28   0.00000000000000E+00   0.00000000000000E+00
      0.00000000000000E+00   0.00000000000000E+00  -5.82618555983164E-09  -4.44664964044027E-05  -4.44723225899626E-05
     -3.87088755959053E-31
      4.02000000000000E-01
      6.03000000000000E+00   6.03000000000000E+00   0.00000000000000E+00   0.00000000000000E+00   1.32785051229298E-05
      3.41031262708107E-05   4.73816313937406E-05   2.08060206327991E-28   0.00000000000000E+00   0.00000000000000E+00
      0.00000000000000E+00   0.00000000000000E+00  -6.21014951303996E-09  -4.73754212442276E-05  -4.73816313937406E-05
     -3.87088755959053E-31
      4.12000000000000E-01
      6.18000000000000E+00   6.18000000000000E+00   0.00000000000000E+00   0.00000000000000E+00   1.48430312846594E-05
      3.56328529588845E-05   5.04758842435439E-05  -5.17634438906243E-28   0.00000000000000E+00   0.00000000000000E+00
      0.00000000000000E+00   0.00000000000000E+00  -6.61880793307691E-09  -5.04692654356109E-05  -5.04758842435440E-05
     -3.87088755959053E-31
      4.22000000000000E-01
      6.33000000000000E+00   6.33000000000000E+00   0.00000000000000E+00   0.00000000000000E+00   1.65522609433239E-05
      3.72588247159361E-05   5.38110856592600E-05   5.02731521801820E-28   0.00000000000000E+00   0.00000000000000E+00
      0.00000000000000E+00   0.00000000000000E+00  -7.05960095372109E-09  -5.38040260583062E-05  -5.38110856592600E-05
     -1.93544377979526E-31
      4.32000000000000E-01
      6.48000000000000E+00   6.48000000000000E+00   0.00000000000000E+00   0.00000000000000E+00   1.84349559895356E-05
      3.90085436456695E-05   5.74434996352052E-05  -2.12995587966469E-28   0.00000000000000E+00   0.00000000000000E+00
      0.00000000000000E+00   0.00000000000000E+00  -7.54002101210055E-09  -5.74359596141931E-05  -5.74434996352052E-05
      0.00000000000000E+00
      4.42000000000000E-01
      6.63000000000000E+00   6.63000000000000E+00   0.00000000000000E+00   0.00000000000000E+00   2.05178792754419E-05
      4.09087629400050E-05   6.14266422154470E-05   5.13666779157663E-28   0.00000000000000E+00   0.00000000000000E+00
      0.00000000000000E+00   0.00000000000000E+00  -8.06721432603057E-09  -6.14185750011209E-05  -6.14266422154469E-05
      0.00000000000000E+00
      4.52000000000000E-01
      6.78000000000000E+00   6.78000000000000E+00   0.00000000000000E+00   0.00000000000000E+00   2.28266008022164E-05
      4.29876657545283E-05   6.58142665567448E-05  -5.04183104636666E-28   0.00000000000000E+00   0.00000000000000E+00
      0.00000000000000E+00   0.00000000000000E+00  -8.64837361550507E-09  -6.58056181831294E-05  -6.58142665567449E-05
     -9.67721889897631E-31
      4.62000000000000E-01
      6.93000000000000E+00   6.93000000000000E+00   0.00000000000000E+00   0.00000000000000E+00   2.53865707596412E-05
      4.52767842714329E-05   7.06633550310741E-05   1.21623287122334E-27   0.00000000000000E+00   0.00000000000000E+00
      0.00000000000000E+00   0.00000000000000E+00  -9.29113200213897E-09  -7.06540638990721E-05  -7.06633550310742E-05
     -3.87088755959053E-31
      4.72000000000000E-01
      7.08000000000000E+00   7.08000000000000E+00   0.00000000000000E+00   0.00000000000000E+00   2.82229267685822E-05
      4.78117993899492E-05   7.60347261585315E-05  -1.14055701943335E-27   0.00000000000000E+00   0.00000000000000E+00
      0.00000000000000E+00   0.00000000000000E+00  -1.00036402249131E-08  -7.60247225183067E-05  -7.60347261585316E-05
     -1.93544377979526E-31
      4.82000000000000E-01
      7.23000000000000E+00   7.23000000000000E+00   0.00000000000000E+00   0.00000000000000E+00   3.13592887927607E-05
      5.06325075596639E-05   8.19917963524246E-05  -3.00961507758163E-28   0.00000000000000E+00   0.00000000000000E+00
      0.00000000000000E+00   0.00000000000000E+00  -1.07943964697034E-08  -8.19810019559550E-05  -8.19917963524247E-05
      3.87088755959053E-31
      4.92000000000000E-01
      7.38000000000000E+00   7.38000000000000E+00   0.00000000000000E+00   0.00000000000000E+00   3.48192611629923E-05
      5.37837739275129E-05   8.86030350905053E-05   3.26122276895502E-29   0.00000000000000E+00   0.00000000000000E+00
      0.00000000000000E+00   0.00000000000000E+00  -1.16725626131751E-08  -8.85913625278922E-05  -8.86030350905053E-05
      3.87088755959053E-31
      5.02000000000000E-01
      7.53000000000000E+00   7.53000000000000E+00   0.00000000000000E+00   0.00000000000000E+00   3.86314058231929E-05
      5.73167456745444E-05   9.59481514977373E-05  -1.59567662425220E-27   0.00000000000000E+00   0.00000000000000E+00
      0.00000000000000E+00   0.00000000000000E+00  -1.26487729982311E-08  -9.59355027247391E-05  -9.59481514977373E-05
      3.87088755959053E-31
      5.12000000000000E-01
      7.68000000000000E+00   7.68000000000000E+00   0.00000000000000E+00   0.00000000000000E+00   4.28242282868402E-05
      6.12836788600287E-05   1.04107907146869E-04   3.73830966067455E-28   0.00000000000000E+00   0.00000000000000E+00
      0.00000000000000E+00   0.00000000000000E+00  -1.37337611578029E-08  -1.04094173385711E-04  -1.04107907146869E-04
      5.80633133938579E-31
      5.22000000000000E-01
      7.83000000000000E+00   7.83000000000000E+00   0.00000000000000E+00   0.00000000000000E+00   4.74067912691398E-05
      6.57261895518964E-05   1.13132980821036E-04   2.84897324385863E-28   0.00000000000000E+00   0.00000000000000E+00
      0.00000000000000E+00   0.00000000000000E+00  -1.49341879592524E-08  -1.13118046633077E-04  -1.13132980821036E-04
      0.00000000000000E+00
      5.32000000000000E-01
      7.98000000000000E+00   7.98000000000000E+00   0.00000000000000E+00   0.00000000000000E+00   5.23796849609010E-05
      7.06755900053731E-05   1.23055274966274E-04   8.12208982191082E-28   0.00000000000000E+00   0.00000000000000E+00
      0.00000000000000E+00   0.00000000000000E+00  -1.62541067029147E-08  -1.23039020859571E-04  -1.23055274966274E-04
      0.00000000000000E+00
      5.42000000000000E-01
      8.13000000000000E+00   8.13000000000000E+00   0.00000000000000E+00   0.00000000000000E+00   5.77826186958464E-05
      7.61624285644313E-05   1.33945047260278E-04  -7.55935954293535E-28   0.00000000000000E+00   0.00000000000000E+00
      0.00000000000000E+00   0.00000000000000E+00  -1.77025273100106E-08  -1.33927344732968E-04  -1.33945047260278E-04
     -5.80633133938579E-31
      5.52000000000000E-01
      8.28000000000000E+00   8.28000000000000E+00   0.00000000000000E+00   0.00000000000000E+00   6.37128520652686E-05
      8.22109378265425E-05   1.45923789891811E-04  -1.12352511417115E-28   0.00000000000000E+00   0.00000000000000E+00
      0.00000000000000E+00   0.00000000000000E+00  -1.92950793552199E-08  -1.45904494812456E-04  -1.45923789891811E-04
      0.00000000000000E+00
      5.62000000000000E-01
      8.43000000000000E+00   8.43000000000000E+00   0.00000000000000E+00   0.00000000000000E+00   7.03142022981719E-05
      8.88267864628411E-05   1.59140988761013E-04  -6.67341015273407E-28   0.00000000000000E+00   0.00000000000000E+00
      0.00000000000000E+00   0.00000000000000E+00  -2.10508380108013E-08  -1.59119937923002E-04  -1.59140988761013E-04
      5.80633133938579E-31
      5.72000000000000E-01
      8.58000000000000E+00   8.58000000000000E+00   0.00000000000000E+00   0.00000000000000E+00   7.77654818866572E-05
      9.59907198426576E-05   1.73756201729315E-04   2.74978175014412E-28   0.00000000000000E+00   0.00000000000000E+00
      0.00000000000000E+00   0.00000000000000E+00  -2.29898286872723E-08  -1.73733211900627E-04  -1.73756201729315E-04
      0.00000000000000E+00
      5.82000000000000E-01
      8.73000000000000E+00   8.73000000000000E+00   0.00000000000000E+00   0.00000000000000E+00   8.62588771903530E-05
      1.03654370942845E-04   1.89913248133198E-04   7.05227327262899E-29   0.00000000000000E+00   0.00000000000000E+00
      0.00000000000000E+00   0.00000000000000E+00  -2.51294728292632E-08  -1.89888118660369E-04  -1.89913248133199E-04
      0.00000000000000E+00
      5.92000000000000E-01
      8.88000000000000E+00   8.88000000000000E+00   0.00000000000000E+00   0.00000000000000E+00   9.59275014766144E-05
      1.11736243858942E-04   2.07663745335557E-04   3.57246632179334E-28   0.00000000000000E+00   0.00000000000000E+00
      0.00000000000000E+00   0.00000000000000E+00  -2.74743793464400E-08  -2.07636270956210E-04  -2.07663745335556E-04
      1.93544377979526E-31
      6.02000000000000E-01
      9.03000000000000E+00   9.03000000000000E+00   0.00000000000000E+00   0.00000000000000E+00   1.06698550257005E-04
      1.20130973923320E-04   2.26829524180326E-04   1.05992764121944E-28   0.00000000000000E+00   0.00000000000000E+00
      0.00000000000000E+00   0.00000000000000E+00  -2.99983251933795E-08  -2.26799525855132E-04  -2.26829524180326E-04
      5.80633133938579E-31
      6.12000000000000E-01
      9.18000000000001E+00   9.18000000000001E+00   0.00000000000000E+00   0.00000000000000E+00   1.18602049654237E-04
      1.28799567832867E-04   2.47401617487103E-04  -4.33853916288356E-28   0.00000000000000E+00   0.00000000000000E+00
      0.00000000000000E+00   0.00000000000000E+00  -3.26970552607880E-08  -2.47368920431843E-04  -2.47401617487103E-04
      1.93544377979526E-31
      6.22000000000000E-01
      9.33000000000001E+00   9.33000000000001E+00   0.00000000000000E+00   0.00000000000000E+00   1.32034576085503E-04
      1.37773266595784E-04   2.69807842681287E-04   1.56250795647596E-27   0.00000000000000E+00   0.00000000000000E+00
      0.00000000000000E+00   0.00000000000000E+00  -3.56227569676995E-08  -2.69772219924319E-04  -2.69807842681286E-04
      0.00000000000000E+00
      6.32000000000000E-01
      9.48000000000001E+00   9.48000000000001E+00   0.00000000000000E+00   0.00000000000000E+00   1.47285445149015E-04
      1.47059610330189E-04   2.94345055479204E-04   1.89092857285997E-28   0.00000000000000E+00   0.00000000000000E+00
      0.00000000000000E+00   0.00000000000000E+00  -3.88089289766252E-08  -2.94306246550228E-04  -2.94345055479204E-04
     -3.87088755959053E-31
      6.42000000000000E-01
      9.63000000000001E+00   9.63000000000001E+00   0.00000000000000E+00   0.00000000000000E+00   1.64580804510669E-04
      1.56655429541179E-04   3.21236234051849E-04  -1.67415886952290E-28   0.00000000000000E+00   0.00000000000000E+00
      0.00000000000000E+00   0.00000000000000E+00  -4.22778546839263E-08  -3.21193956197164E-04  -3.21236234051848E-04
      3.87088755959053E-31
      6.52000000000000E-01
      9.78000000000000E+00   9.78000000000000E+00   0.00000000000000E+00   0.00000000000000E+00   1.84147764903072E-04
      1.66553121860361E-04   3.50700886763432E-04   1.22126502505081E-28   0.00000000000000E+00   0.00000000000000E+00
      0.00000000000000E+00   0.00000000000000E+00  -4.60496499073120E-08  -3.50654837113525E-04  -3.50700886763432E-04
     -3.87088755959053E-31
      6.62000000000000E-01
      9.93000000000001E+00   9.93000000000001E+00   0.00000000000000E+00   0.00000000000000E+00   2.06231086197824E-04
      1.76739889243063E-04   3.82970975440887E-04  -1.08694522673302E-27   0.00000000000000E+00   0.00000000000000E+00
      0.00000000000000E+00   0.00000000000000E+00  -5.01440898401761E-08  -3.82920831351047E-04  -3.82970975440887E-04
     -5.80633133938579E-31
      6.72000000000000E-01
      1.00800000000000E+01   1.00800000000000E+01   0.00000000000000E+00   0.00000000000000E+00   2.31090956653138E-04
      1.87196351642266E-04   4.18287308295404E-04  -9.20835764332091E-28   0.00000000000000E+00   0.00000000000000E+00
      0.00000000000000E+00   0.00000000000000E+00  -5.45799024746514E-08  -4.18232728392929E-04  -4.18287308295404E-04
      0.00000000000000E+00
      6.82000000000000E-01