DF-ISE text

Info {
  version   = 1.0
  type      = xyplot
  datasets  = [
    "time"
    "ntype OuterVoltage" "ntype InnerVoltage" "ntype QuasiFermiPotential" "ntype DisplacementCurrent" "ntype eCurrent"
    "ntype hCurrent" "ntype TotalCurrent" "ntype Charge" "ptype OuterVoltage" "ptype InnerVoltage"
    "ptype QuasiFermiPotential" "ptype DisplacementCurrent" "ptype eCurrent" "ptype hCurrent" "ptype TotalCurrent"
    "ptype Charge" ]
  functions = [
    Time
    OuterVoltage InnerVoltage QuasiFermiPotential DisplacementCurrent eCurrent
    hCurrent TotalCurrent Charge OuterVoltage InnerVoltage
    QuasiFermiPotential DisplacementCurrent eCurrent hCurrent TotalCurrent
    Charge ]
}

Data {
      0.00000000000000E+00
      0.00000000000000E+00   0.00000000000000E+00   0.00000000000000E+00   0.00000000000000E+00   8.02033282319895E-09
     -8.02033282319902E-09  -6.48054717495834E-23  -1.01166648113261E-27   0.00000000000000E+00   0.00000000000000E+00
      0.00000000000000E+00   0.00000000000000E+00  -1.51328098395374E-24  -1.22097836486376E-18  -1.22097987814474E-18
      4.74183726049839E-30
      0.00000000000000E+00
      0.00000000000000E+00   0.00000000000000E+00   0.00000000000000E+00   0.00000000000000E+00   7.52065700817455E-09
     -6.48353794848378E-09   1.03711905969078E-09   3.26043838500129E-29   0.00000000000000E+00   0.00000000000000E+00
      0.00000000000000E+00   0.00000000000000E+00   2.79298925031876E-10  -8.91521766384584E-17   2.79298835879699E-10
     -1.55803224273519E-29
      0.00000000000000E+00
      0.00000000000000E+00   0.00000000000000E+00   0.00000000000000E+00   0.00000000000000E+00   7.40755268254077E-09
     -3.70192105482842E-09   3.70563162771235E-09  -1.98003411748275E-28   0.00000000000000E+00   0.00000000000000E+00
      0.00000000000000E+00   0.00000000000000E+00   2.79298444926311E-10  -3.98493007277461E-09  -3.70563162784830E-09
      1.61609555612904E-29
      5.00000000000000E-03
      7.50000000000000E-02   7.50000000000000E-02   0.00000000000000E+00   0.00000000000000E+00   9.16779101638492E-09
     -3.48504981102716E-09   5.68274120535776E-09   3.13847187792195E-28   0.00000000000000E+00   0.00000000000000E+00
      0.00000000000000E+00   0.00000000000000E+00   2.79208880015965E-10  -5.96195008517289E-09  -5.68274120515693E-09
     -2.82574791850108E-29
      1.33333333333333E-02
      2.00000000000000E-01   2.00000000000000E-01   0.00000000000000E+00   0.00000000000000E+00   1.06599211002785E-08
     -3.23604546724693E-09   7.42387563303152E-09   2.72251921002716E-28   0.00000000000000E+00   0.00000000000000E+00
      0.00000000000000E+00   0.00000000000000E+00   2.79116768721433E-10  -7.70299240194529E-09  -7.42387563322386E-09
      1.59674111833109E-29
      2.33333333333333E-02
      3.50000000000000E-01   3.50000000000000E-01   0.00000000000000E+00   0.00000000000000E+00   1.21626994864168E-08
     -2.94518151331133E-09   9.21751797310552E-09   6.74029825812779E-28   0.00000000000000E+00   0.00000000000000E+00
      0.00000000000000E+00   0.00000000000000E+00   2.79032643693318E-10  -9.49655061660786E-09  -9.21751797291454E-09
     -1.38384230255361E-29
      3.33333333333333E-02
      5.00000000000000E-01   5.00000000000000E-01   0.00000000000000E+00   0.00000000000000E+00   1.36131788267305E-08
     -2.61146810045195E-09   1.10017107262786E-08  -1.55212233491227E-27   0.00000000000000E+00   0.00000000000000E+00
      0.00000000000000E+00   0.00000000000000E+00   2.78968517035820E-10  -1.12806792433376E-08  -1.10017107263018E-08
      1.34513342695771E-29
      4.33333333333333E-02
      6.50000000000000E-01   6.50000000000000E-01   0.00000000000000E+00   0.00000000000000E+00   1.50085175498074E-08
     -1.99233971148137E-09   1.30161778383260E-08   1.35969764140067E-27   0.00000000000000E+00   0.00000000000000E+00
      0.00000000000000E+00   0.00000000000000E+00   2.78918027411859E-10  -1.32950958657480E-08  -1.30161778383361E-08
      1.29674733246283E-29
      5.33333333333333E-02
      8.00000000000000E-01   8.00000000000000E-01   0.00000000000000E+00   0.00000000000000E+00   1.61905774306143E-08
      2.55393979846621E-10   1.64459714104609E-08   5.37388061983778E-28   0.00000000000000E+00   0.00000000000000E+00
      0.00000000000000E+00   0.00000000000000E+00   2.78877123480901E-10  -1.67248485339399E-08  -1.64459714104590E-08
      3.34831773904580E-29
      6.33333333333333E-02
      9.50000000000000E-01   9.50000000000000E-01   0.00000000000000E+00   0.00000000000000E+00   1.73585299709050E-08
      1.08247655607967E-08   2.81832955317017E-08   6.76860979365275E-28   0.00000000000000E+00   0.00000000000000E+00
      0.00000000000000E+00   0.00000000000000E+00   2.78843637171284E-10  -2.84621391689092E-08  -2.81832955317379E-08
     -1.84834880970448E-29
      7.33333333333333E-02
      1.10000000000000E+00   1.10000000000000E+00   0.00000000000000E+00   0.00000000000000E+00   1.89461230955918E-08
      5.98348569464147E-08   7.87809800420066E-08  -1.97424337931835E-27   0.00000000000000E+00   0.00000000000000E+00
      0.00000000000000E+00   0.00000000000000E+00   2.78816716864766E-10  -7.90597967588796E-08  -7.87809800420148E-08
     -1.54835502383621E-30
      8.33333333333333E-02
      1.25000000000000E+00   1.25000000000000E+00   0.00000000000000E+00   0.00000000000000E+00   2.56010713075228E-08
      2.64493085426451E-07   2.90094156733973E-07  -2.55867179754387E-27   0.00000000000000E+00   0.00000000000000E+00
      0.00000000000000E+00   0.00000000000000E+00   2.78798563422512E-10  -2.90372955297417E-07  -2.90094156733995E-07
     -2.27414644125943E-29
      9.33333333333333E-02
      1.40000000000000E+00   1.40000000000000E+00   0.00000000000000E+00   0.00000000000000E+00   5.58049663934192E-08
      1.00067600615700E-06   1.05648097255042E-06   1.72524248878587E-27   0.00000000000000E+00   0.00000000000000E+00
      0.00000000000000E+00   0.00000000000000E+00   2.78797680285278E-10  -1.05675977023069E-06  -1.05648097255040E-06
      1.83867159080550E-29
      1.03333333333333E-01
      1.55000000000000E+00   1.55000000000000E+00   0.00000000000000E+00   0.00000000000000E+00   1.84298261287229E-07
      3.24522169221859E-06   3.42951995350582E-06   4.07796794750499E-27   0.00000000000000E+00   0.00000000000000E+00
      0.00000000000000E+00   0.00000000000000E+00   2.78836550942577E-10  -3.42979879005677E-06  -3.42951995350583E-06
     -2.61284910272360E-30
      1.13333333333333E-01
      1.70000000000000E+00   1.70000000000000E+00   0.00000000000000E+00   0.00000000000000E+00   6.35536493440480E-07
      8.99335560092302E-06   9.62889209436350E-06  -1.06231670463512E-28   0.00000000000000E+00   0.00000000000000E+00
      0.00000000000000E+00   0.00000000000000E+00   2.78958602740372E-10  -9.62917105296624E-06  -9.62889209436350E-06
     -9.38690233200702E-30
      1.23333333333333E-01
      1.85000000000000E+00   1.85000000000000E+00   0.00000000000000E+00   0.00000000000000E+00   1.91837264264135E-06
      2.12635429427228E-05   2.31819155853641E-05   2.23035702574157E-28   0.00000000000000E+00   0.00000000000000E+00
      0.00000000000000E+00   0.00000000000000E+00   2.79211693944536E-10  -2.31821947970581E-05  -2.31819155853641E-05
     -6.67728104029366E-30
      1.33333333333333E-01
      2.00000000000000E+00   2.00000000000000E+00   0.00000000000000E+00   0.00000000000000E+00   4.89942046789223E-06
      4.30892754669850E-05   4.79886959348772E-05   3.96405498454042E-27   0.00000000000000E+00   0.00000000000000E+00
      0.00000000000000E+00   0.00000000000000E+00   2.79585466717584E-10  -4.79889755203440E-05  -4.79886959348773E-05
     -1.38384230255361E-29
      1.43333333333333E-01
      2.15000000000000E+00   2.15000000000000E+00   0.00000000000000E+00   0.00000000000000E+00   1.06879753122355E-05
      7.59219820334400E-05   8.66099573456755E-05  -8.58478185051813E-28   0.00000000000000E+00   0.00000000000000E+00
      0.00000000000000E+00   0.00000000000000E+00   2.79952585842108E-10  -8.66102372982615E-05  -8.66099573456757E-05
     -1.36448786475566E-29
      1.53333333333333E-01
      2.30000000000000E+00   2.30000000000000E+00   0.00000000000000E+00   0.00000000000000E+00   2.03938807982071E-05
      1.18888089046255E-04   1.39281969844462E-04   2.22092173731506E-27   0.00000000000000E+00   0.00000000000000E+00
      0.00000000000000E+00   0.00000000000000E+00   2.80104233988347E-10  -1.39282249948697E-04  -1.39281969844463E-04
     -4.35474850453934E-30
      1.63333333333333E-01
      2.45000000000000E+00   2.45000000000000E+00   0.00000000000000E+00   0.00000000000000E+00   3.49588013625640E-05
      1.69402157265505E-04   2.04360958628069E-04   2.67821871638619E-27   0.00000000000000E+00   0.00000000000000E+00
      0.00000000000000E+00   0.00000000000000E+00   2.79854862910202E-10  -2.04361238482932E-04  -2.04360958628069E-04
     -2.51607691373384E-30
      1.73333333333333E-01
      2.60000000000000E+00   2.60000000000000E+00   0.00000000000000E+00   0.00000000000000E+00   5.51360364914480E-05
      2.24293841322505E-04   2.79429877813953E-04   1.77959216942725E-27   0.00000000000000E+00   0.00000000000000E+00
      0.00000000000000E+00   0.00000000000000E+00   2.79121381389390E-10  -2.79430156935336E-04  -2.79429877813955E-04
      9.09658576503773E-30
      1.83333333333333E-01
      2.75000000000000E+00   2.75000000000000E+00   0.00000000000000E+00   0.00000000000000E+00   8.15471843463187E-05
      2.80644558544820E-04   3.62191742891139E-04  -2.14756841806082E-27   0.00000000000000E+00   0.00000000000000E+00
      0.00000000000000E+00   0.00000000000000E+00   2.77938416219175E-10  -3.62192020829555E-04  -3.62191742891139E-04
     -1.27739289466487E-29
      1.93333333333333E-01
      2.90000000000000E+00   2.90000000000000E+00   0.00000000000000E+00   0.00000000000000E+00   1.14718231139541E-04
      3.36027702261371E-04   4.50745933400912E-04   1.04243001979773E-27   0.00000000000000E+00   0.00000000000000E+00
      0.00000000000000E+00   0.00000000000000E+00   2.76400159611873E-10  -4.50746209801071E-04  -4.50745933400911E-04
      9.87076327695584E-30
      2.03333333333333E-01
      3.05000000000000E+00   3.05000000000000E+00   0.00000000000000E+00   0.00000000000000E+00   1.55181703793318E-04
      3.88730685872803E-04   5.43912389666120E-04  -1.18519319160488E-27   0.00000000000000E+00   0.00000000000000E+00
      0.00000000000000E+00   0.00000000000000E+00   2.74588176003972E-10  -5.43912664254297E-04  -5.43912389666121E-04
     -3.89991921628745E-29
      2.13333333333333E-01
      3.20000000000000E+00   3.20000000000000E+00   0.00000000000000E+00   0.00000000000000E+00   2.03571295895402E-04
      4.37850709824176E-04   6.41422005719577E-04  -3.47721829478017E-27   0.00000000000000E+00   0.00000000000000E+00
      0.00000000000000E+00   0.00000000000000E+00   2.72542603038484E-10  -6.41422278262171E-04  -6.41422005719568E-04
     -1.00643076549354E-29
      2.23333333333333E-01
      3.35000000000000E+00   3.35000000000000E+00   0.00000000000000E+00   0.00000000000000E+00   2.60632336202926E-04
      4.83051473542018E-04   7.43683809744944E-04  -3.41523570773223E-27   0.00000000000000E+00   0.00000000000000E+00
      0.00000000000000E+00   0.00000000000000E+00   2.70273813586368E-10  -7.43684080018762E-04  -7.43683809744948E-04
     -2.20640590896660E-29
      2.33333333333333E-01
      3.50000000000000E+00   3.50000000000000E+00   0.00000000000000E+00   0.00000000000000E+00   3.27214809163288E-04
      5.24340547885444E-04   8.51555357048732E-04   1.07247778447905E-28   0.00000000000000E+00   0.00000000000000E+00
      0.00000000000000E+00   0.00000000000000E+00   2.67776185366195E-10  -8.51555624824909E-04  -8.51555357048724E-04
     -3.77411537060076E-30
      2.43333333333333E-01
      3.65000000000000E+00   3.65000000000000E+00   0.00000000000000E+00   0.00000000000000E+00   4.04249751385595E-04
      5.61931298015633E-04   9.66181049401228E-04   2.48675494046994E-27   0.00000000000000E+00   0.00000000000000E+00
      0.00000000000000E+00   0.00000000000000E+00   2.65034756476161E-10  -9.66181314435984E-04  -9.66181049401227E-04
      2.03221596878503E-30
      2.53333333333333E-01
      3.80000000000000E+00   3.80000000000000E+00   0.00000000000000E+00   0.00000000000000E+00   4.92729013103239E-04
      5.96143759350257E-04   1.08887277245350E-03  -2.48680332656444E-27   0.00000000000000E+00   0.00000000000000E+00
      0.00000000000000E+00   0.00000000000000E+00   2.62028708976841E-10  -1.08887303448220E-03  -1.08887277245349E-03
     -1.64512721282597E-30
      2.63333333333333E-01
      3.95000000000000E+00   3.95000000000000E+00   0.00000000000000E+00   0.00000000000000E+00   5.93688344272493E-04
      6.27333958268564E-04   1.22102230254106E-03   3.24936817580377E-28   0.00000000000000E+00   0.00000000000000E+00
      0.00000000000000E+00   0.00000000000000E+00   2.58733732079733E-10  -1.22102256127478E-03  -1.22102230254105E-03
      9.67721889897631E-30
      2.73333333333333E-01
      4.10000000000000E+00   4.10000000000000E+00   0.00000000000000E+00   0.00000000000000E+00   7.08188518618872E-04
      6.55850452698083E-04   1.36403897131696E-03   3.59157882911882E-27   0.00000000000000E+00   0.00000000000000E+00
      0.00000000000000E+00   0.00000000000000E+00   2.55123693516138E-10  -1.36403922644064E-03  -1.36403897131695E-03
     -1.38384230255361E-29
      2.83333333333333E-01
      4.25000000000000E+00   4.25000000000000E+00   0.00000000000000E+00   0.00000000000000E+00   8.37294414829685E-04
      6.82011386150237E-04   1.51930580097992E-03   2.59581719746141E-27   0.00000000000000E+00   0.00000000000000E+00
      0.00000000000000E+00   0.00000000000000E+00   2.51171719386861E-10  -1.51930605215163E-03  -1.51930580097991E-03
      3.48379880363147E-30
      2.93333333333333E-01
      4.40000000000000E+00   4.40000000000000E+00   0.00000000000000E+00   0.00000000000000E+00   9.82050898779588E-04
      7.06095120865508E-04   1.68814601964510E-03  -2.28295271045750E-27   0.00000000000000E+00   0.00000000000000E+00
      0.00000000000000E+00   0.00000000000000E+00   2.46850914929968E-10  -1.68814626649600E-03  -1.68814601964509E-03
      1.23868401906897E-29
      3.03333333333333E-01
      4.55000000000000E+00   4.55000000000000E+00   0.00000000000000E+00   0.00000000000000E+00   1.14345603279789E-03
      7.28339077680677E-04   1.87179511047857E-03   1.40411607614697E-27   0.00000000000000E+00   0.00000000000000E+00
      0.00000000000000E+00   0.00000000000000E+00   2.42135015238493E-10  -1.87179535261359E-03  -1.87179511047858E-03
      2.75800738620825E-29
      3.13333333333333E-01
      4.70000000000000E+00   4.70000000000000E+00   0.00000000000000E+00   0.00000000000000E+00   1.32243792847810E-03
      7.48942883011116E-04   2.07138081148922E-03  -1.28198957364189E-28   0.00000000000000E+00   0.00000000000000E+00
      0.00000000000000E+00   0.00000000000000E+00   2.36999120671117E-10  -2.07138104848834E-03  -2.07138081148922E-03
      1.37416508365464E-29
      3.23333333333333E-01
      4.85000000000000E+00   4.85000000000000E+00   0.00000000000000E+00   0.00000000000000E+00   1.51984150222524E-03
      7.68073305645242E-04   2.28791480787048E-03  -1.43266387189895E-27   0.00000000000000E+00   0.00000000000000E+00
      0.00000000000000E+00   0.00000000000000E+00   2.31420578048666E-10  -2.28791503929106E-03  -2.28791480787048E-03
      1.26771567576590E-29
      3.33333333333333E-01
      5.00000000000000E+00   5.00000000000000E+00   0.00000000000000E+00   0.00000000000000E+00   1.73642462987804E-03
      7.85869638057401E-04   2.52229426793544E-03  -3.42670321212751E-28   0.00000000000000E+00   0.00000000000000E+00
      0.00000000000000E+00   0.00000000000000E+00   2.25380055231125E-10  -2.52229449331551E-03  -2.52229426793545E-03
     -6.96759760726295E-30
      3.43333333333333E-01
      5.15000000000000E+00   5.15000000000000E+00   0.00000000000000E+00   0.00000000000000E+00   1.97285924642805E-03
      8.02448861875036E-04   2.77530810830308E-03  -1.15104954402456E-26   0.00000000000000E+00   0.00000000000000E+00
      0.00000000000000E+00   0.00000000000000E+00   2.18862759108529E-10  -2.77530832716583E-03  -2.77530810830307E-03
     -2.12898815777479E-30
      3.53333333333333E-01
      5.30000000000000E+00   5.30000000000000E+00   0.00000000000000E+00   0.00000000000000E+00   2.22973386348073E-03
      8.17910251739543E-04   3.04764411522027E-03  -3.57072442239153E-27   0.00000000000000E+00   0.00000000000000E+00
      0.00000000000000E+00   0.00000000000000E+00   2.11859594912688E-10  -3.04764432707986E-03  -3.04764411522027E-03
     -3.58057099262124E-30
      3.63333333333334E-01
      5.45000000000000E+00   5.45000000000000E+00   0.00000000000000E+00   0.00000000000000E+00   2.50755585613391E-03
      8.32339254902102E-04   3.33989511103602E-03   8.49437243295444E-27   0.00000000000000E+00   0.00000000000000E+00
      0.00000000000000E+00   0.00000000000000E+00   2.04368048789276E-10  -3.33989531540405E-03  -3.33989511103600E-03
      6.77405322928342E-30
      3.73333333333334E-01
      5.60000000000000E+00   5.60000000000000E+00   0.00000000000000E+00   0.00000000000000E+00   2.80675278253190E-03
      8.45810621769829E-04   3.65256340430172E-03  -3.46129926969135E-27   0.00000000000000E+00   0.00000000000000E+00
      0.00000000000000E+00   0.00000000000000E+00   1.96392701909890E-10  -3.65256360069441E-03  -3.65256340430171E-03
     -3.29025442565195E-30
      3.83333333333334E-01
      5.75000000000000E+00   5.75000000000000E+00   0.00000000000000E+00   0.00000000000000E+00   3.12767232752583E-03
      8.58390852257805E-04   3.98606317978363E-03  -3.63016673947849E-27   0.00000000000000E+00   0.00000000000000E+00
      0.00000000000000E+00   0.00000000000000E+00   1.87945395771631E-10  -3.98606336772903E-03  -3.98606317978363E-03
      1.03546242219047E-29
      3.93333333333334E-01
      5.90000000000000E+00   5.90000000000000E+00   0.00000000000000E+00   0.00000000000000E+00   3.47058077898477E-03
      8.70140063011095E-04   4.34072084199586E-03  -1.48269509360666E-27   0.00000000000000E+00   0.00000000000000E+00
      0.00000000000000E+00   0.00000000000000E+00   1.79045089891586E-10  -4.34072102104095E-03  -4.34072084199586E-03
     -1.31610177026078E-29
      4.03333333333334E-01
      6.05000000000000E+00   6.05000000000000E+00   0.00000000000000E+00   0.00000000000000E+00   3.83566029873791E-03
      8.81113386613623E-04   4.71677368535153E-03  -2.13073005717660E-27   0.00000000000000E+00   0.00000000000000E+00
      0.00000000000000E+00   0.00000000000000E+00   1.69717252549905E-10  -4.71677385506879E-03  -4.71677368535153E-03
     -8.99981357604797E-30
      4.13333333333334E-01
      6.20000000000000E+00   6.20000000000000E+00   0.00000000000000E+00   0.00000000000000E+00   4.22300554654747E-03
      8.91362002323489E-04   5.11436754887096E-03   1.52837156680982E-27   0.00000000000000E+00   0.00000000000000E+00
      0.00000000000000E+00   0.00000000000000E+00   1.59992347096873E-10  -5.11436770886329E-03  -5.11436754887095E-03
     -7.35468636322200E-30
      4.23333333333334E-01
      6.35000000000000E+00   6.35000000000000E+00   0.00000000000000E+00   0.00000000000000E+00   4.63262042386087E-03
      9.00933879979564E-04   5.53355430384044E-03   3.71576174063994E-27   0.00000000000000E+00   0.00000000000000E+00
      0.00000000000000E+00   0.00000000000000E+00   1.49902916288436E-10  -5.53355445374334E-03  -5.53355430384042E-03
     -1.56770946163416E-29
      4.33333333333334E-01
      6.50000000000000E+00   6.50000000000000E+00   0.00000000000000E+00   0.00000000000000E+00   5.06441581175466E-03
      9.09874301006265E-04   5.97429011276092E-03  -5.42555696875832E-27   0.00000000000000E+00   0.00000000000000E+00
      0.00000000000000E+00   0.00000000000000E+00   1.39479222493049E-10  -5.97429025224014E-03  -5.97429011276092E-03
      2.19672869006762E-29
      4.43333333333334E-01
      6.65000000000000E+00   6.65000000000000E+00   0.00000000000000E+00   0.00000000000000E+00   5.51820911776519E-03
      9.18226206636768E-04   6.43643532440196E-03  -2.75012045280558E-27   0.00000000000000E+00   0.00000000000000E+00
      0.00000000000000E+00   0.00000000000000E+00   1.28744288722840E-10  -6.43643545314622E-03  -6.43643532440193E-03
      1.06449407888739E-30
      4.53333333333334E-01
      6.80000000000000E+00   6.80000000000000E+00   0.00000000000000E+00   0.00000000000000E+00   5.99372623039843E-03
      9.26030414082804E-04   6.91975664448123E-03  -4.99900935273869E-27   0.00000000000000E+00   0.00000000000000E+00
      0.00000000000000E+00   0.00000000000000E+00   1.17709977711160E-10  -6.91975676219121E-03  -6.91975664448123E-03
     -9.67721889897631E-31
      4.63333333333334E-01
      6.95000000000000E+00   6.95000000000000E+00   0.00000000000000E+00   0.00000000000000E+00   6.49060619999190E-03
      9.33325733814735E-04   7.42393193380664E-03  -6.35677155035956E-27   0.00000000000000E+00   0.00000000000000E+00
      0.00000000000000E+00   0.00000000000000E+00   1.06378776913484E-10  -7.42393204018540E-03  -7.42393193380662E-03
      7.74177511918105E-30
      4.73333333333334E-01
      7.10000000000000E+00   7.10000000000000E+00   0.00000000000000E+00   0.00000000000000E+00   7.00840858898235E-03
      9.40149018240202E-04   7.94855760722255E-03   2.60757501842366E-27   0.00000000000000E+00   0.00000000000000E+00
      0.00000000000000E+00   0.00000000000000E+00   9.52191158119501E-11  -7.94855770244168E-03  -7.94855760722256E-03
     -1.48061449154338E-29
      4.83333333333334E-01
      7.25000000000000E+00   7.25000000000000E+00   0.00000000000000E+00   0.00000000000000E+00   7.54662328180505E-03
      9.46535164728774E-04   8.49315844653382E-03  -1.25839651396618E-26   0.00000000000000E+00   0.00000000000000E+00
      0.00000000000000E+00   0.00000000000000E+00   8.41984239558841E-11  -8.49315853073223E-03  -8.49315844653380E-03
     -9.29013014301726E-30
      4.93333333333334E-01
      7.40000000000000E+00   7.40000000000000E+00   0.00000000000000E+00   0.00000000000000E+00   8.10468225373421E-03
      9.52517094332764E-04   9.05719934806697E-03  -9.28524314747328E-27   0.00000000000000E+00   0.00000000000000E+00
      0.00000000000000E+00   0.00000000000000E+00   1.23701484775775E-09  -9.05720058508182E-03  -9.05719934806697E-03
      2.08060206327991E-29
      5.03333333333334E-01
      7.55000000000000E+00   7.55000000000000E+00   0.00000000000000E+00   0.00000000000000E+00   8.68197253949092E-03
      9.58125722058181E-04   9.64009826154910E-03   1.25319984741743E-27   0.00000000000000E+00   0.00000000000000E+00
      0.00000000000000E+00   0.00000000000000E+00   7.34675086344789E-08  -9.64017172905770E-03  -9.64009826154907E-03
     -2.11931093887581E-29
      5.13333333333334E-01
      7.70000000000000E+00   7.70000000000000E+00   0.00000000000000E+00   0.00000000000000E+00   9.27784909958469E-03
      9.63389928647791E-04   1.02412390282325E-02  -2.71484698991881E-27   0.00000000000000E+00   0.00000000000000E+00
      0.00000000000000E+00   0.00000000000000E+00   8.24444827653903E-07  -1.02420634730601E-02  -1.02412390282325E-02
      1.06449407888739E-30
      5.23333333333334E-01
      7.85000000000000E+00   7.85000000000000E+00   0.00000000000000E+00   0.00000000000000E+00   9.89164742118782E-03
      9.68336549843531E-04   1.08599839710314E-02   4.76211103409175E-27   0.00000000000000E+00   0.00000000000000E+00
      0.00000000000000E+00   0.00000000000000E+00   4.06642776263342E-06  -1.08640503987940E-02  -1.08599839710313E-02
      1.12255739228125E-29
      5.33333333333334E-01
      8.00000000000001E+00   8.00000000000001E+00   0.00000000000000E+00   0.00000000000000E+00   1.05226962244909E-02
      9.72990404678633E-04   1.14956866291695E-02  -2.05790898496181E-27   0.00000000000000E+00   0.00000000000000E+00
      0.00000000000000E+00   0.00000000000000E+00   1.27156959008044E-05  -1.15084023250703E-02  -1.14956866291695E-02
      4.16120412655981E-30
      5.43333333333334E-01
      8.15000000000001E+00   8.15000000000001E+00   0.00000000000000E+00   0.00000000000000E+00   1.11703308925054E-02
      9.77374336265341E-04   1.21477052287707E-02   1.11452530059510E-27   0.00000000000000E+00   0.00000000000000E+00
      0.00000000000000E+00   0.00000000000000E+00   3.00995532682268E-05  -1.21778047820389E-02  -1.21477052287707E-02
      9.38690233200702E-30
      5.53333333333334E-01
      8.30000000000000E+00   8.30000000000000E+00   0.00000000000000E+00   0.00000000000000E+00   1.18339041005147E-02
      9.81509276206849E-04   1.28154133767215E-02  -3.44673505524839E-27   0.00000000000000E+00   0.00000000000000E+00
      0.00000000000000E+00   0.00000000000000E+00   5.93754056384628E-05  -1.28747887823600E-02  -1.28154133767215E-02
      6.19342009534484E-30
      5.63333333333334E-01
      8.45000000000000E+00   8.45000000000000E+00   0.00000000000000E+00   0.00000000000000E+00   1.25127942141350E-02
      9.85414321758276E-04   1.34982085358932E-02   3.40904228763688E-27   0.00000000000000E+00   0.00000000000000E+00
      0.00000000000000E+00   0.00000000000000E+00   1.03278882609575E-04  -1.36014874185028E-02  -1.34982085358932E-02
      2.61284910272360E-30
      5.73333333333334E-01
      8.60000000000000E+00   8.60000000000000E+00   0.00000000000000E+00   0.00000000000000E+00   1.32064121653118E-02
      9.89106822739093E-04   1.41955189880509E-02  -4.51014044700965E-27   0.00000000000000E+00   0.00000000000000E+00
      0.00000000000000E+00   0.00000000000000E+00   1.64100379316203E-04  -1.43596193673671E-02  -1.41955189880509E-02
     -2.85477957519801E-29
      5.83333333333334E-01
      8.75000000000001E+00   8.75000000000001E+00   0.00000000000000E+00   0.00000000000000E+00   1.39142060213656E-02
      9.92602487279017E-04   1.49068085086446E-02   5.40400096366085E-28   0.00000000000000E+00   0.00000000000000E+00
      0.00000000000000E+00   0.00000000000000E+00   2.43759671081706E-04  -1.51505681797263E-02  -1.49068085086446E-02
     -2.41930472474408E-30
      5.93333333333334E-01
      8.90000000000001E+00   8.90000000000001E+00   0.00000000000000E+00   0.00000000000000E+00   1.46356636643728E-02
      9.95915501401907E-04   1.56315791657747E-02   3.35799495794478E-28   0.00000000000000E+00   0.00000000000000E+00
      0.00000000000000E+00   0.00000000000000E+00   3.43901818424471E-04  -1.59754809841992E-02  -1.56315791657747E-02
     -3.58057099262124E-30
      6.03333333333334E-01
      9.05000000000001E+00   9.05000000000001E+00   0.00000000000000E+00   0.00000000000000E+00   1.53703134449322E-02
      9.99058661504885E-04   1.63693721064371E-02  -8.76760870856704E-27   0.00000000000000E+00   0.00000000000000E+00
      0.00000000000000E+00   0.00000000000000E+00   4.65982395789346E-04  -1.68353545022264E-02  -1.63693721064370E-02
      1.06449407888739E-30
      6.13333333333334E-01
      9.20000000000001E+00   9.20000000000001E+00   0.00000000000000E+00   0.00000000000000E+00   1.61177227430612E-02
      1.00204351785226E-03   1.71197662609134E-02   4.08700405065191E-27   0.00000000000000E+00   0.00000000000000E+00
      0.00000000000000E+00   0.00000000000000E+00   6.11333485323821E-04  -1.77310997462372E-02  -1.71197662609134E-02
      2.19672869006762E-29
      6.23333333333334E-01
      9.35000000000001E+00   9.35000000000001E+00   0.00000000000000E+00   0.00000000000000E+00   1.68774944596297E-02
      1.00488052639419E-03   1.78823749860239E-02  -5.58450528917400E-27   0.00000000000000E+00   0.00000000000000E+00
      0.00000000000000E+00   0.00000000000000E+00   7.81211315209765E-04  -1.86635863012336E-02  -1.78823749860239E-02
     -7.25791417423224E-30
      6.33333333333334E-01
      9.50000000000001E+00   9.50000000000001E+00   0.00000000000000E+00   0.00000000000000E+00   1.76492616042020E-02
      1.00757920510683E-03   1.86568408093088E-02   6.20527468849609E-27   0.00000000000000E+00   0.00000000000000E+00
      0.00000000000000E+00   0.00000000000000E+00   9.76829942103391E-04  -1.96336707514122E-02  -1.86568408093088E-02
      1.06449407888739E-29
      6.43333333333334E-01
      9.65000000000001E+00   9.65000000000001E+00   0.00000000000000E+00   0.00000000000000E+00   1.84326803254716E-02
      1.01014828968789E-03   1.94428286151595E-02  -1.82081712193689E-27   0.00000000000000E+00   0.00000000000000E+00
      0.00000000000000E+00   0.00000000000000E+00   1.19938999814449E-03  -2.06422186133039E-02  -1.94428286151594E-02
     -8.32240825311963E-30
      6.53333333333334E-01
      9.80000000000001E+00   9.80000000000001E+00   0.00000000000000E+00   0.00000000000000E+00   1.92274219261753E-02
      1.01259588216543E-03   2.02400178083408E-02  -1.58459620861288E-27   0.00000000000000E+00   0.00000000000000E+00
      0.00000000000000E+00   0.00000000000000E+00   1.45011488891383E-03  -2.16901326972545E-02  -2.02400178083407E-02
     -6.38696447332437E-30
      6.63333333333334E-01
      9.95000000000001E+00   9.95000000000001E+00   0.00000000000000E+00   0.00000000000000E+00   2.00331645834948E-02
      1.01492958525611E-03   2.10480941687509E-02   3.80680017743205E-27   0.00000000000000E+00   0.00000000000000E+00
      0.00000000000000E+00   0.00000000000000E+00   1.73029554251358E-03  -2.27783897112644E-02  -2.10480941687508E-02
      1.22900680016999E-29
      6.73333333333334E-01
      1.01000000000000E+01   1.01000000000000E+01   0.00000000000000E+00   0.00000000000000E+00   2.08495856003763E-02
      1.01715661554276E-03   2.18667422159191E-02  -2.41090973734922E-27   0.00000000000000E+00   0.00000000000000E+00
      0.00000000000000E+00   0.00000000000000E+00   2.04132922575071E-03  -2.39080714416696E-02  -2.18667422159189E-02
      1.54835502383621E-30
      6.83333333333334E-01