DF-ISE text

Info {
  version   = 1.0
  type      = xyplot
  datasets  = [
    "frequency"
    "v(g)" "v(b)" "a(g,g)" "c(g,g)" "a(g,b)"
    "c(g,b)" "a(b,g)" "c(b,g)" "a(b,b)" "c(b,b)" ]
  functions = [
    Frequency
    Voltage Voltage Admittance Capacitance Admittance
    Capacitance Admittance Capacitance Admittance Capacitance ]
}

Data {
      1.00000000000000E+00
      2.00000000000000E+01   0.00000000000000E+00  -3.21405841119451E+09   4.35523729117471E-16  -6.84968050307267E-04
     -4.35523747747994E-16  -6.84968050069024E-04  -4.35523747976267E-16  -3.21405841119451E+09   4.35523747303958E-16
      1.80472176682717E+00
      2.00000000000000E+01   0.00000000000000E+00  -3.21405841119451E+09   4.35523729139600E-16  -6.84968050307267E-04
     -4.35523747747995E-16  -6.84968050069024E-04  -4.35523747976268E-16  -3.21405841119451E+09   4.35523747306268E-16
      3.25702065565978E+00
      2.00000000000000E+01   0.00000000000000E+00  -3.21405841119451E+09   4.35523729133753E-16  -6.84968050307267E-04
     -4.35523747747999E-16  -6.84968050069024E-04  -4.35523747976273E-16  -3.21405841119451E+09   4.35523747304550E-16
      5.87801607227491E+00
      2.00000000000000E+01   0.00000000000000E+00  -3.21405841119451E+09   4.35523729138320E-16  -6.84968050307267E-04
     -4.35523747747993E-16  -6.84968050069024E-04  -4.35523747976264E-16  -3.21405841119451E+09   4.35523747306282E-16
      1.06081835513945E+01
      2.00000000000000E+01   0.00000000000000E+00  -3.21405841119451E+09   4.35523729130986E-16  -6.84968050307267E-04
     -4.35523747747998E-16  -6.84968050069024E-04  -4.35523747976267E-16  -3.21405841119451E+09   4.35523747305966E-16
      1.91448197616996E+01
      2.00000000000000E+01   0.00000000000000E+00  -3.21405841119451E+09   4.35523729118295E-16  -6.84968050307267E-04
     -4.35523747747994E-16  -6.84968050069024E-04  -4.35523747976264E-16  -3.21405841119451E+09   4.35523747306022E-16
      3.45510729459222E+01
      2.00000000000000E+01   0.00000000000000E+00  -3.21405841119451E+09   4.35523729117089E-16  -6.84968050307267E-04
     -4.35523747747996E-16  -6.84968050069024E-04  -4.35523747976268E-16  -3.21405841119451E+09   4.35523747305103E-16
      6.23550734127392E+01
      2.00000000000000E+01   0.00000000000000E+00  -3.21405841119451E+09   4.35523729132659E-16  -6.84968050307267E-04
     -4.35523747747999E-16  -6.84968050069024E-04  -4.35523747976269E-16  -3.21405841119451E+09   4.35523747305199E-16
      1.12533558260076E+02
      2.00000000000000E+01   0.00000000000000E+00  -3.21405841119451E+09   4.35523729120953E-16  -6.84968050307266E-04
     -4.35523747747998E-16  -6.84968050069025E-04  -4.35523747976267E-16  -3.21405841119451E+09   4.35523747305113E-16
      2.03091762090474E+02
      2.00000000000000E+01   0.00000000000000E+00  -3.21405841119451E+09   4.35523729127218E-16  -6.84968050307267E-04
     -4.35523747747993E-16  -6.84968050069024E-04  -4.35523747976264E-16  -3.21405841119451E+09   4.35523747306558E-16
      3.66524123707963E+02
      2.00000000000000E+01   0.00000000000000E+00  -3.21405841119451E+09   4.35523729124185E-16  -6.84968050307266E-04
     -4.35523747747995E-16  -6.84968050069024E-04  -4.35523747976267E-16  -3.21405841119451E+09   4.35523747305674E-16
      6.61474064123015E+02
      2.00000000000000E+01   0.00000000000000E+00  -3.21405841119451E+09   4.35523729133006E-16  -6.84968050307266E-04
     -4.35523747747994E-16  -6.84968050069024E-04  -4.35523747976264E-16  -3.21405841119451E+09   4.35523747304503E-16
      1.19377664171444E+03
      2.00000000000000E+01   0.00000000000000E+00  -3.21405841119451E+09   4.35523729117305E-16  -6.84968050307267E-04
     -4.35523747747997E-16  -6.84968050069025E-04  -4.35523747976261E-16  -3.21405841119451E+09   4.35523747306932E-16
      2.15443469003188E+03
      2.00000000000000E+01   0.00000000000000E+00  -3.21405841119451E+09   4.35523729127506E-16  -6.84968050307267E-04
     -4.35523747748000E-16  -6.84968050069025E-04  -4.35523747976271E-16  -3.21405841119451E+09   4.35523747305166E-16
      3.88815518030809E+03
      2.00000000000000E+01   0.00000000000000E+00  -3.21405841119451E+09   4.35523729122990E-16  -6.84968050307270E-04
     -4.35523747747989E-16  -6.84968050069027E-04  -4.35523747976273E-16  -3.21405841119451E+09   4.35523747305772E-16
      7.01703828670382E+03
      2.00000000000000E+01   0.00000000000000E+00  -3.21405841119451E+09   4.35523729132489E-16  -6.84968050307270E-04
     -4.35523747747971E-16  -6.84968050069023E-04  -4.35523747976269E-16  -3.21405841119451E+09   4.35523747304569E-16
      1.26638017346740E+04
      2.00000000000000E+01   0.00000000000000E+00  -3.21405841119451E+09   4.35523729118013E-16  -6.84968050307283E-04
     -4.35523747748039E-16  -6.84968050069044E-04  -4.35523747976291E-16  -3.21405841119451E+09   4.35523747306429E-16
      2.28546386413499E+04
      2.00000000000000E+01   0.00000000000000E+00  -3.21405841119451E+09   4.35523729126503E-16  -6.84968050307281E-04
     -4.35523747747983E-16  -6.84968050069043E-04  -4.35523747976270E-16  -3.21405841119451E+09   4.35523747304333E-16
      4.12462638290135E+04
      2.00000000000000E+01   0.00000000000000E+00  -3.21405841119451E+09   4.35523729129827E-16  -6.84968050307415E-04
     -4.35523747747809E-16  -6.84968050069189E-04  -4.35523747976269E-16  -3.21405841119451E+09   4.35523747305224E-16
      7.44380301325169E+04
      2.00000000000000E+01   0.00000000000000E+00  -3.21405841119451E+09   4.35523729126464E-16  -6.84968050306319E-04
     -4.35523747749375E-16  -6.84968050067950E-04  -4.35523747976562E-16  -3.21405841119451E+09   4.35523747304970E-16
      1.34339933259890E+05
      2.00000000000000E+01   0.00000000000000E+00  -3.21405841119451E+09   4.35523729135577E-16  -6.84968050307077E-04
     -4.35523747748202E-16  -6.84968050068798E-04  -4.35523747976244E-16  -3.21405841119451E+09   4.35523747306401E-16
      2.42446201708233E+05
      2.00000000000000E+01   0.00000000000000E+00  -3.21405841119451E+09   4.35523729123000E-16  -6.84968050307069E-04
     -4.35523747746778E-16  -6.84968050068594E-04  -4.35523747976096E-16  -3.21405841119451E+09   4.35523747303808E-16
      4.37547937507419E+05
      2.00000000000000E+01   0.00000000000000E+00  -3.21405841119451E+09   4.35523729127502E-16  -6.84968050307978E-04
     -4.35523747745385E-16  -6.84968050069596E-04  -4.35523747975216E-16  -3.21405841119451E+09   4.35523747306604E-16
      7.89652286849972E+05
      2.00000000000000E+01   0.00000000000000E+00  -3.21405841119451E+09   4.35523729158915E-16  -6.84968050308112E-04
     -4.35523747746032E-16  -6.84968050069614E-04  -4.35523747974378E-16  -3.21405841119451E+09   4.35523747300429E-16
      1.42510267030300E+06
      2.00000000000000E+01   0.00000000000000E+00  -3.21405841119451E+09   4.35523729148873E-16  -6.84968050309581E-04
     -4.35523747740469E-16  -6.84968050071489E-04  -4.35523747968755E-16  -3.21405841119451E+09   4.35523747301995E-16
      2.57191380905934E+06
      2.00000000000000E+01   0.00000000000000E+00  -3.21405841119451E+09   4.35523729141155E-16  -6.84968050314682E-04
     -4.35523747722062E-16  -6.84968050076112E-04  -4.35523747950713E-16  -3.21405841119451E+09   4.35523747278992E-16
      4.64158883361278E+06
      2.00000000000000E+01   0.00000000000000E+00  -3.21405841119451E+09   4.35523729026695E-16  -6.84968050330892E-04
     -4.35523747662969E-16  -6.84968050093040E-04  -4.35523747890352E-16  -3.21405841119451E+09   4.35523747225384E-16
      8.37677640068293E+06
      2.00000000000000E+01   0.00000000000000E+00  -3.21405841119451E+09   4.35523728853514E-16  -6.84968050382673E-04
     -4.35523747470403E-16  -6.84968050144204E-04  -4.35523747698719E-16  -3.21405841119451E+09   4.35523747026672E-16
      1.51177507061567E+07
      2.00000000000000E+01   0.00000000000000E+00  -3.21405841119451E+09   4.35523728230604E-16  -6.84968050552569E-04
     -4.35523746845599E-16  -6.84968050314278E-04  -4.35523747074266E-16  -3.21405841119451E+09   4.35523746403603E-16
      2.72833337648676E+07
      2.00000000000000E+01   0.00000000000000E+00  -3.21405841119451E+09   4.35523726188756E-16  -6.84968051105949E-04
     -4.35523744809374E-16  -6.84968050868247E-04  -4.35523745036422E-16  -3.21405841119451E+09   4.35523744365378E-16
      4.92388263170673E+07
      2.00000000000000E+01   0.00000000000000E+00  -3.21405841119451E+09   4.35523719513593E-16  -6.84968052909070E-04
     -4.35523738179965E-16  -6.84968052670761E-04  -4.35523738407801E-16  -3.21405841119451E+09   4.35523737736127E-16
      8.88623816274339E+07
      2.00000000000000E+01   0.00000000000000E+00  -3.21405841119451E+09   4.35523698006047E-16  -6.84968058781437E-04
     -4.35523716581900E-16  -6.84968058544458E-04  -4.35523716810428E-16  -3.21405841119451E+09   4.35523716139231E-16
      1.60371874375133E+08
      2.00000000000000E+01   0.00000000000000E+00  -3.21405841119451E+09   4.35523627838646E-16  -6.84968077906239E-04
     -4.35523646246297E-16  -6.84968077667897E-04  -4.35523646476992E-16  -3.21405841119451E+09   4.35523645802357E-16
      2.89426612471675E+08
      2.00000000000000E+01   0.00000000000000E+00  -3.21405841119451E+09   4.35523398790282E-16  -6.84968140184058E-04
     -4.35523417249783E-16  -6.84968139944131E-04  -4.35523417477007E-16  -3.21405841119451E+09   4.35523416810277E-16
      5.22334507426686E+08
      2.00000000000000E+01   0.00000000000000E+00  -3.21405841119451E+09   4.35522654525770E-16  -6.84968342878856E-04
     -4.35522673015456E-16  -6.84968342640071E-04  -4.35522673245707E-16  -3.21405841119451E+09   4.35522672574374E-16
      9.42668455117888E+08
      2.00000000000000E+01   0.00000000000000E+00  -3.21405841119451E+09   4.35520256809308E-16  -6.84969001496210E-04
     -4.35520275511963E-16  -6.84969001256767E-04  -4.35520275742918E-16  -3.21405841119451E+09   4.35520275071563E-16
      1.70125427985259E+09
      2.00000000000000E+01   0.00000000000000E+00  -3.21405841119451E+09   4.35512777597238E-16  -6.84971130551600E-04
     -4.35512796665438E-16  -6.84971130318346E-04  -4.35512796893919E-16  -3.21405841119451E+09   4.35512796237615E-16
      3.07029062975785E+09
      2.00000000000000E+01   0.00000000000000E+00  -3.21405841119451E+09   4.35491562674118E-16  -6.84977917740811E-04
     -4.35491581015685E-16  -6.84977917509872E-04  -4.35491581239380E-16  -3.21405841119451E+09   4.35491580599680E-16
      5.54102033000949E+09
      2.00000000000000E+01   0.00000000000000E+00  -3.21405841119451E+09   4.35444475817101E-16  -6.84999003164404E-04
     -4.35444494334068E-16  -6.84999002927909E-04  -4.35444494567404E-16  -3.21405841119451E+09   4.35444493926717E-16
      1.00000000000000E+10
      2.00000000000000E+01   0.00000000000000E+00  -3.21405841119451E+09   4.35379390375084E-16  -6.85063708955161E-04
     -4.35379408839893E-16  -6.85063708719348E-04  -4.35379409080195E-16  -3.21405841119451E+09   4.35379408450025E-16
}
