DF-ISE text

Info {
  version   = 1.0
  type      = xyplot
  datasets  = [
    "time" "v(g)" "v(b)" ]
  functions = [
    Time Voltage Voltage ]
}

Data {
      0.00000000000000E+00   1.20000000000000E+00   0.00000000000000E+00
}
