DF-ISE text

Info {
  version   = 1.0
  type      = xyplot
  datasets  = [
    "frequency"
    "v(g)" "v(b)" "a(g,g)" "c(g,g)" "a(g,b)"
    "c(g,b)" "a(b,g)" "c(b,g)" "a(b,b)" "c(b,b)" ]
  functions = [
    Frequency
    Voltage Voltage Admittance Capacitance Admittance
    Capacitance Admittance Capacitance Admittance Capacitance ]
}

Data {
      1.00000000000000E+00
      2.00000000000000E+01   0.00000000000000E+00  -3.21405841118746E+09   1.74342197572575E-16  -7.72795941593995E-03
     -1.74342197372021E-16  -7.72795941594915E-03  -1.74342197369938E-16  -3.21405841118746E+09   1.74342197379128E-16
      1.80472176682717E+00
      2.00000000000000E+01   0.00000000000000E+00  -3.21405841118746E+09   1.74342197587645E-16  -7.72795941593995E-03
     -1.74342197372033E-16  -7.72795941594915E-03  -1.74342197369960E-16  -3.21405841118746E+09   1.74342197381054E-16
      3.25702065565978E+00
      2.00000000000000E+01   0.00000000000000E+00  -3.21405841118746E+09   1.74342197584993E-16  -7.72795941593995E-03
     -1.74342197372029E-16  -7.72795941594915E-03  -1.74342197369952E-16  -3.21405841118746E+09   1.74342197380639E-16
      5.87801607227491E+00
      2.00000000000000E+01   0.00000000000000E+00  -3.21405841118746E+09   1.74342197584856E-16  -7.72795941593995E-03
     -1.74342197372040E-16  -7.72795941594915E-03  -1.74342197369968E-16  -3.21405841118746E+09   1.74342197380471E-16
      1.06081835513945E+01
      2.00000000000000E+01   0.00000000000000E+00  -3.21405841118746E+09   1.74342197589901E-16  -7.72795941593995E-03
     -1.74342197372029E-16  -7.72795941594915E-03  -1.74342197369958E-16  -3.21405841118746E+09   1.74342197380107E-16
      1.91448197616996E+01
      2.00000000000000E+01   0.00000000000000E+00  -3.21405841118746E+09   1.74342197572101E-16  -7.72795941593995E-03
     -1.74342197372033E-16  -7.72795941594915E-03  -1.74342197369952E-16  -3.21405841118746E+09   1.74342197380319E-16
      3.45510729459222E+01
      2.00000000000000E+01   0.00000000000000E+00  -3.21405841118746E+09   1.74342197585716E-16  -7.72795941593995E-03
     -1.74342197372036E-16  -7.72795941594915E-03  -1.74342197369958E-16  -3.21405841118746E+09   1.74342197381279E-16
      6.23550734127392E+01
      2.00000000000000E+01   0.00000000000000E+00  -3.21405841118746E+09   1.74342197576015E-16  -7.72795941593995E-03
     -1.74342197372054E-16  -7.72795941594915E-03  -1.74342197369987E-16  -3.21405841118746E+09   1.74342197380823E-16
      1.12533558260076E+02
      2.00000000000000E+01   0.00000000000000E+00  -3.21405841118746E+09   1.74342197577484E-16  -7.72795941593995E-03
     -1.74342197372048E-16  -7.72795941594915E-03  -1.74342197369980E-16  -3.21405841118746E+09   1.74342197379034E-16
      2.03091762090474E+02
      2.00000000000000E+01   0.00000000000000E+00  -3.21405841118746E+09   1.74342197585253E-16  -7.72795941593995E-03
     -1.74342197372022E-16  -7.72795941594915E-03  -1.74342197369945E-16  -3.21405841118746E+09   1.74342197379945E-16
      3.66524123707963E+02
      2.00000000000000E+01   0.00000000000000E+00  -3.21405841118746E+09   1.74342197570003E-16  -7.72795941593995E-03
     -1.74342197372030E-16  -7.72795941594916E-03  -1.74342197369942E-16  -3.21405841118746E+09   1.74342197381240E-16
      6.61474064123015E+02
      2.00000000000000E+01   0.00000000000000E+00  -3.21405841118746E+09   1.74342197586838E-16  -7.72795941593995E-03
     -1.74342197372056E-16  -7.72795941594916E-03  -1.74342197369993E-16  -3.21405841118746E+09   1.74342197380968E-16
      1.19377664171444E+03
      2.00000000000000E+01   0.00000000000000E+00  -3.21405841118746E+09   1.74342197580854E-16  -7.72795941593995E-03
     -1.74342197372044E-16  -7.72795941594916E-03  -1.74342197369972E-16  -3.21405841118746E+09   1.74342197379584E-16
      2.15443469003188E+03
      2.00000000000000E+01   0.00000000000000E+00  -3.21405841118746E+09   1.74342197581903E-16  -7.72795941593995E-03
     -1.74342197372050E-16  -7.72795941594915E-03  -1.74342197369973E-16  -3.21405841118746E+09   1.74342197380060E-16
      3.88815518030809E+03
      2.00000000000000E+01   0.00000000000000E+00  -3.21405841118746E+09   1.74342197581353E-16  -7.72795941593995E-03
     -1.74342197372068E-16  -7.72795941594916E-03  -1.74342197369995E-16  -3.21405841118746E+09   1.74342197381071E-16
      7.01703828670382E+03
      2.00000000000000E+01   0.00000000000000E+00  -3.21405841118746E+09   1.74342197588970E-16  -7.72795941593998E-03
     -1.74342197372052E-16  -7.72795941594917E-03  -1.74342197369978E-16  -3.21405841118746E+09   1.74342197379518E-16
      1.26638017346740E+04
      2.00000000000000E+01   0.00000000000000E+00  -3.21405841118746E+09   1.74342197577242E-16  -7.72795941593996E-03
     -1.74342197371973E-16  -7.72795941594911E-03  -1.74342197369956E-16  -3.21405841118746E+09   1.74342197380137E-16
      2.28546386413499E+04
      2.00000000000000E+01   0.00000000000000E+00  -3.21405841118746E+09   1.74342197589313E-16  -7.72795941594029E-03
     -1.74342197371723E-16  -7.72795941594938E-03  -1.74342197369757E-16  -3.21405841118746E+09   1.74342197381149E-16
      4.12462638290135E+04
      2.00000000000000E+01   0.00000000000000E+00  -3.21405841118746E+09   1.74342197568401E-16  -7.72795941593744E-03
     -1.74342197372375E-16  -7.72795941594591E-03  -1.74342197370447E-16  -3.21405841118746E+09   1.74342197376269E-16
      7.44380301325169E+04
      2.00000000000000E+01   0.00000000000000E+00  -3.21405841118746E+09   1.74342197577484E-16  -7.72795941594070E-03
     -1.74342197371798E-16  -7.72795941595001E-03  -1.74342197369568E-16  -3.21405841118746E+09   1.74342197378104E-16
      1.34339933259890E+05
      2.00000000000000E+01   0.00000000000000E+00  -3.21405841118746E+09   1.74342197570191E-16  -7.72795941594024E-03
     -1.74342197372733E-16  -7.72795941594945E-03  -1.74342197370490E-16  -3.21405841118746E+09   1.74342197376451E-16
      2.42446201708233E+05
      2.00000000000000E+01   0.00000000000000E+00  -3.21405841118746E+09   1.74342197606352E-16  -7.72795941593479E-03
     -1.74342197373324E-16  -7.72795941594452E-03  -1.74342197370068E-16  -3.21405841118746E+09   1.74342197387689E-16
      4.37547937507419E+05
      2.00000000000000E+01   0.00000000000000E+00  -3.21405841118746E+09   1.74342197560101E-16  -7.72795941594254E-03
     -1.74342197371616E-16  -7.72795941595299E-03  -1.74342197369350E-16  -3.21405841118746E+09   1.74342197373612E-16
      7.89652286849972E+05
      2.00000000000000E+01   0.00000000000000E+00  -3.21405841118746E+09   1.74342197603336E-16  -7.72795941594100E-03
     -1.74342197370968E-16  -7.72795941595039E-03  -1.74342197369383E-16  -3.21405841118746E+09   1.74342197386516E-16
      1.42510267030300E+06
      2.00000000000000E+01   0.00000000000000E+00  -3.21405841118746E+09   1.74342197580395E-16  -7.72795941594024E-03
     -1.74342197372541E-16  -7.72795941594974E-03  -1.74342197369968E-16  -3.21405841118746E+09   1.74342197381411E-16
      2.57191380905934E+06
      2.00000000000000E+01   0.00000000000000E+00  -3.21405841118746E+09   1.74342197583880E-16  -7.72795941593927E-03
     -1.74342197371359E-16  -7.72795941594889E-03  -1.74342197368847E-16  -3.21405841118746E+09   1.74342197380771E-16
      4.64158883361278E+06
      2.00000000000000E+01   0.00000000000000E+00  -3.21405841118746E+09   1.74342197565794E-16  -7.72795941592874E-03
     -1.74342197366810E-16  -7.72795941593753E-03  -1.74342197364676E-16  -3.21405841118746E+09   1.74342197374009E-16
      8.37677640068293E+06
      2.00000000000000E+01   0.00000000000000E+00  -3.21405841118746E+09   1.74342197568795E-16  -7.72795941589854E-03
     -1.74342197355139E-16  -7.72795941590616E-03  -1.74342197352943E-16  -3.21405841118746E+09   1.74342197360297E-16
      1.51177507061567E+07
      2.00000000000000E+01   0.00000000000000E+00  -3.21405841118746E+09   1.74342197533383E-16  -7.72795941580391E-03
     -1.74342197316681E-16  -7.72795941581291E-03  -1.74342197314383E-16  -3.21405841118746E+09   1.74342197320323E-16
      2.72833337648676E+07
      2.00000000000000E+01   0.00000000000000E+00  -3.21405841118746E+09   1.74342197412414E-16  -7.72795941549307E-03
     -1.74342197189776E-16  -7.72795941549985E-03  -1.74342197187884E-16  -3.21405841118746E+09   1.74342197199804E-16
      4.92388263170673E+07
      2.00000000000000E+01   0.00000000000000E+00  -3.21405841118746E+09   1.74342197005219E-16  -7.72795941448251E-03
     -1.74342196776555E-16  -7.72795941449290E-03  -1.74342196774917E-16  -3.21405841118746E+09   1.74342196787487E-16
      8.88623816274339E+07
      2.00000000000000E+01   0.00000000000000E+00  -3.21405841118746E+09   1.74342195626629E-16  -7.72795941119442E-03
     -1.74342195433695E-16  -7.72795941120456E-03  -1.74342195432274E-16  -3.21405841118746E+09   1.74342195439212E-16
      1.60371874375133E+08
      2.00000000000000E+01   0.00000000000000E+00  -3.21405841118746E+09   1.74342191254276E-16  -7.72795940048816E-03
     -1.74342191043136E-16  -7.72795940049723E-03  -1.74342191041826E-16  -3.21405841118746E+09   1.74342191051665E-16
      2.89426612471675E+08
      2.00000000000000E+01   0.00000000000000E+00  -3.21405841118746E+09   1.74342176810842E-16  -7.72795936561864E-03
     -1.74342176606300E-16  -7.72795936562836E-03  -1.74342176604476E-16  -3.21405841118746E+09   1.74342176613453E-16
      5.22334507426686E+08
      2.00000000000000E+01   0.00000000000000E+00  -3.21405841118746E+09   1.74342128956211E-16  -7.72795925205111E-03
     -1.74342128744278E-16  -7.72795925206017E-03  -1.74342128742698E-16  -3.21405841118746E+09   1.74342128751917E-16
      9.42668455117888E+08
      2.00000000000000E+01   0.00000000000000E+00  -3.21405841118746E+09   1.74341970699819E-16  -7.72795888215813E-03
     -1.74341970495780E-16  -7.72795888216548E-03  -1.74341970494678E-16  -3.21405841118746E+09   1.74341970504745E-16
      1.70125427985259E+09
      2.00000000000000E+01   0.00000000000000E+00  -3.21405841118746E+09   1.74341452513247E-16  -7.72795767737275E-03
     -1.74341452315253E-16  -7.72795767738207E-03  -1.74341452313903E-16  -3.21405841118746E+09   1.74341452323093E-16
      3.07029062975785E+09
      2.00000000000000E+01   0.00000000000000E+00  -3.21405841118746E+09   1.74339762935042E-16  -7.72795375281072E-03
     -1.74339762729340E-16  -7.72795375281547E-03  -1.74339762727799E-16  -3.21405841118746E+09   1.74339762736547E-16
      5.54102033000949E+09
      2.00000000000000E+01   0.00000000000000E+00  -3.21405841118746E+09   1.74334268192009E-16  -7.72794096451985E-03
     -1.74334267984382E-16  -7.72794096453301E-03  -1.74334267983227E-16  -3.21405841118746E+09   1.74334267995708E-16
      1.00000000000000E+10
      2.00000000000000E+01   0.00000000000000E+00  -3.21405841118746E+09   1.74316498865532E-16  -7.72789925019297E-03
     -1.74316498666230E-16  -7.72789925020481E-03  -1.74316498665127E-16  -3.21405841118746E+09   1.74316498675889E-16
}
