DF-ISE text

Info {
  version   = 1.0
  type      = xyplot
  datasets  = [
    "frequency"
    "v(g)" "v(b)" "a(g,g)" "c(g,g)" "a(g,b)"
    "c(g,b)" "a(b,g)" "c(b,g)" "a(b,b)" "c(b,b)" ]
  functions = [
    Frequency
    Voltage Voltage Admittance Capacitance Admittance
    Capacitance Admittance Capacitance Admittance Capacitance ]
}

Data {
      1.00000000000000E+01
      0.00000000000000E+00   0.00000000000000E+00  -1.70393994114235E-09   9.23310272066032E-15  -3.88116142693237E-14
     -9.23310271898377E-15  -3.88122308146743E-14  -9.23310273021295E-15  -5.22606401348937E-11   9.23310272016390E-15
      1.00000000000000E+01
      6.25000000000000E-02   0.00000000000000E+00  -2.70418428604973E-09   8.97051152564598E-15  -1.57425580655323E-14
     -8.97051152654326E-15  -1.57425074925399E-14  -8.97051154641994E-15  -4.13223666182880E-11   8.97051153799839E-15
      1.00000000000000E+01
      1.25000000000000E-01   0.00000000000000E+00  -4.21731212251351E-10   8.73845438544460E-15  -1.39589374305081E-14
     -8.73845439009523E-15  -1.39575935137054E-14  -8.73845441411934E-15  -3.52455479979515E-11   8.73845441049420E-15
      1.00000000000000E+01
      1.87500000000000E-01   0.00000000000000E+00  -1.01725943704433E-09   8.50739128281760E-15  -1.47621853016501E-14
     -8.50739127886626E-15  -1.47620670628068E-14  -8.50739129951914E-15  -4.98299126867591E-11   8.50739128720874E-15
      1.00000000000000E+01
      2.50000000000000E-01   0.00000000000000E+00   1.06708934973108E-09   8.33187908445530E-15  -1.17767297460440E-14
     -8.33187907887084E-15  -1.17945312283735E-14  -8.33187909867063E-15  -3.64609117220188E-11   8.33187908427872E-15
      1.00000000000000E+01
      3.12500000000000E-01   0.00000000000000E+00   5.74867041483830E-10   8.16244015530825E-15  -1.41002550825492E-14
     -8.16244015496229E-15  -1.41223203916783E-14  -8.16244016327124E-15  -3.28148205498169E-11   8.16244015432550E-15
      1.00000000000000E+01
      3.75000000000000E-01   0.00000000000000E+00   4.24161939699486E-10   7.98973068084538E-15  -1.54250089158044E-14
     -7.98973068041150E-15  -1.54544079219054E-14  -7.98973068682069E-15  -4.61838215145572E-11   7.98973067814270E-15
      1.00000000000000E+01
      4.37500000000000E-01   0.00000000000000E+00   2.55226382054132E-11   7.81948247788245E-15  -1.18061985327849E-14
     -7.81948247801263E-15  -1.18166173020802E-14  -7.81948249959339E-15  -3.88916391701534E-11   7.81948248994991E-15
      1.00000000000000E+01
      5.00000000000000E-01   0.00000000000000E+00   8.64123607811846E-10   7.65977317507777E-15  -1.17716291881207E-14
     -7.65977317630781E-15  -1.17901151344719E-14  -7.65977318203084E-15  -3.64609117220188E-11   7.65977317408937E-15
      1.00000000000000E+01
      5.62500000000000E-01   0.00000000000000E+00  -5.55421221898754E-10   7.50912452572902E-15  -1.30026731820835E-14
     -7.50912452384481E-15  -1.30382067683714E-14  -7.50912455117129E-15  -4.25377303423553E-11   7.50912454013968E-15
      1.00000000000000E+01
      6.25000000000000E-01   0.00000000000000E+00   3.11133113361227E-10   7.36687826246321E-15  -9.83462420676306E-15
     -7.36687826594659E-15  -9.84579625242427E-15  -7.36687827704430E-15  -4.61838215145572E-11   7.36687827144418E-15
      1.00000000000000E+01
      6.87500000000000E-01   0.00000000000000E+00   4.37530940664226E-10   7.23242357134583E-15  -8.31519428098015E-15
     -7.23242357453457E-15  -8.34457951216075E-15  -7.23242358718735E-15  -4.49684577904899E-11   7.23242358055477E-15
      1.00000000000000E+01
      7.50000000000000E-01   0.00000000000000E+00  -1.78901540182706E-09   7.10523348291359E-15  -1.04288840521224E-14
     -7.10523348101334E-15  -1.03971334101135E-14  -7.10523351450095E-15  -4.49684577904899E-11   7.10523350372425E-15
      1.00000000000000E+01
      8.12500000000000E-01   0.00000000000000E+00   1.80238440279180E-09   6.98443581973634E-15  -9.99168760350716E-15
     -6.98443581935550E-15  -9.94959617376258E-15  -6.98443584383310E-15  -4.98299126867591E-11   6.98443583444852E-15
      1.00000000000000E+01
      8.75000000000000E-01   0.00000000000000E+00   2.02358060057205E-09   6.86948141309803E-15  -7.48390668476857E-15
     -6.86948141398161E-15  -7.49069645945898E-15  -6.86948143060787E-15  -4.25377303423553E-11   6.86948142140471E-15
      1.00000000000000E+01
      9.37500000000000E-01   0.00000000000000E+00  -4.25377303423553E-11   6.76010339033050E-15  -8.21787678441388E-15
     -6.76010338889000E-15  -8.21297285456728E-15  -6.76010340067077E-15  -4.86145489626918E-11   6.76010338993999E-15
      1.00000000000000E+01
      1.00000000000000E+00   0.00000000000000E+00  -8.61692880363712E-10   6.65590177406425E-15  -1.02636695467829E-14
     -6.65590177523653E-15  -1.02979321348603E-14  -6.65590179583554E-15  -4.13223666182880E-11   6.65590178750798E-15
      1.00000000000000E+01
      1.06250000000000E+00   0.00000000000000E+00  -1.18133353979341E-09   6.55649640204535E-15  -9.18317257552530E-15
     -6.55649640317186E-15  -9.20536412620466E-15  -6.55649641985065E-15  -3.52455479979515E-11   6.55649641143708E-15
      1.00000000000000E+01
      1.12500000000000E+00   0.00000000000000E+00   8.38600969606433E-11   6.46130438239264E-15  -7.59574835468476E-15
     -6.46130438269796E-15  -7.59900948014624E-15  -6.46130438923058E-15  -3.88916391701534E-11   6.46130438015047E-15
      1.00000000000000E+01
      1.18750000000000E+00   0.00000000000000E+00  -4.24161939699486E-10   6.37032679451560E-15  -8.98919345211476E-15
     -6.37032679814508E-15  -8.99594748007368E-15  -6.37032681081645E-15  -3.88916391701534E-11   6.37032680542354E-15
      1.00000000000000E+01
      1.25000000000000E+00   0.00000000000000E+00  -1.24331708972084E-09   6.28316514671244E-15  -1.08671352523626E-14
     -6.28316514811873E-15  -1.08816466469243E-14  -6.28316516538370E-15  -4.61838215145572E-11   6.28316515807602E-15
      1.00000000000000E+01
      1.31250000000000E+00   0.00000000000000E+00   2.55226382054132E-10   6.19957636106905E-15  -9.82278211130767E-15
     -6.19957636137734E-15  -9.84021965584012E-15  -6.19957637500438E-15  -3.88916391701534E-11   6.19957636645994E-15
      1.00000000000000E+01
      1.37500000000000E+00   0.00000000000000E+00  -2.63733928122603E-10   6.11935156473598E-15  -8.36670755853617E-15
     -6.11935156500814E-15  -8.37031136689047E-15  -6.11935158386306E-15  -3.64609117220188E-11   6.11935157519047E-15
      1.00000000000000E+01
      1.43750000000000E+00   0.00000000000000E+00  -1.25182463578931E-10   6.04219304948253E-15  -9.28260929313669E-15
     -6.04219304888123E-15  -9.29109322154703E-15  -6.04219306898514E-15  -4.13223666182880E-11   6.04219306071697E-15
      1.00000000000000E+01
      1.50000000000000E+00   0.00000000000000E+00  -2.95333384948353E-10   5.96803486794368E-15  -1.09215306550370E-14
     -5.96803486449269E-15  -1.08588809873965E-14  -5.96803488248672E-15  -3.64609117220188E-11   5.96803487091594E-15
      1.00000000000000E+01
      1.56250000000000E+00   0.00000000000000E+00   7.49879417749521E-10   5.89660968566264E-15  -9.90268118586080E-15
     -5.89660968659210E-15  -9.95344379886070E-15  -5.89660969693092E-15  -4.13223666182880E-11   5.89660968916305E-15
      1.00000000000000E+01
      1.62500000000000E+00   0.00000000000000E+00  -1.56052702170241E-09   5.82778049764934E-15  -7.89475452687490E-15
     -5.82778049724958E-15  -7.87407265703513E-15  -5.82778050172386E-15  -4.25377303423553E-11   5.82778049332815E-15
      1.00000000000000E+01
      1.68750000000000E+00   0.00000000000000E+00   1.58969575108002E-09   5.76137342287822E-15  -7.69853577501043E-15
     -5.76137342502046E-15  -7.73901532519980E-15  -5.76137342998102E-15  -4.13223666182880E-11   5.76137342382089E-15
      1.00000000000000E+01
      1.75000000000000E+00   0.00000000000000E+00   3.62178389772054E-10   5.69725520568315E-15  -9.08437659012840E-15
     -5.69725520329305E-15  -9.07021529987701E-15  -5.69725521681471E-15  -4.25377303423553E-11   5.69725520633169E-15
      1.00000000000000E+01
      1.81250000000000E+00   0.00000000000000E+00   4.21731212251351E-10   5.63528587981291E-15  -8.98703494541016E-15
     -5.63528587878982E-15  -8.99542594773051E-15  -5.63528588852817E-15  -4.25377303423553E-11   5.63528587913886E-15
      1.00000000000000E+01
      1.87500000000000E+00   0.00000000000000E+00  -6.31989136514993E-11   5.57538206686915E-15  -7.08623456891810E-15
     -5.57538206688790E-15  -7.08240930000459E-15  -5.57538207884250E-15  -3.88916391701534E-11   5.57538207055829E-15
      1.00000000000000E+01
      1.93750000000000E+00   0.00000000000000E+00   8.53185334295241E-10   5.51733307542929E-15  -6.11068692653511E-15
     -5.51733307520561E-15  -6.08351989845462E-15  -5.51733308107778E-15  -3.88916391701534E-11   5.51733307143900E-15
      1.00000000000000E+01
      2.00000000000000E+00   0.00000000000000E+00  -5.51775130726552E-10   5.46112101720675E-15  -6.99076371450327E-15
     -5.46112101803411E-15  -6.99803995774710E-15  -5.46112103565957E-15  -4.25377303423553E-11   5.46112102583910E-15
      1.00000000000000E+01
      2.06250000000000E+00   0.00000000000000E+00   1.53865047466919E-09   5.40660753809099E-15  -8.10624535994936E-15
     -5.40660753713198E-15  -8.12341056664649E-15  -5.40660754981398E-15  -4.49684577904899E-11   5.40660753962247E-15
      1.00000000000000E+01
      2.12500000000000E+00   0.00000000000000E+00  -1.30165454847607E-09   5.35369848465379E-15  -7.30203744045574E-15
     -5.35369848254193E-15  -7.28793580664710E-15  -5.35369848308094E-15  -3.88916391701534E-11   5.35369847117686E-15
      1.00000000000000E+01
      2.18750000000000E+00   0.00000000000000E+00  -2.34322126000174E-09   5.30231237566438E-15  -5.65145348166250E-15
     -5.30231237615391E-15  -5.69018216659661E-15  -5.30231238180640E-15  -4.25377303423553E-11   5.30231237311768E-15
      1.00000000000000E+01
      2.25000000000000E+00   0.00000000000000E+00  -1.48031301591396E-09   5.25233670475263E-15  -5.47754597925328E-15
     -5.25233670551598E-15  -5.48023911331114E-15  -5.25233671718200E-15  -3.64609117220188E-11   5.25233670984200E-15
      1.00000000000000E+01
      2.31250000000000E+00   0.00000000000000E+00  -7.96063239264078E-10   5.20371633460111E-15  -6.66711060046322E-15
     -5.20371633604125E-15  -6.70040252151942E-15  -5.20371633608001E-15  -4.61838215145572E-11   5.20371632820859E-15
      1.00000000000000E+01
      2.37500000000000E+00   0.00000000000000E+00  -1.86922940761550E-09   5.15636416435139E-15  -7.52652868036032E-15
     -5.15636416365251E-15  -7.53402603252262E-15  -5.15636416993693E-15  -4.61838215145572E-11   5.15636416129626E-15
      1.00000000000000E+01
      2.43750000000000E+00   0.00000000000000E+00  -2.02358060057205E-09   5.11020652089281E-15  -6.53886808579742E-15
     -5.11020651920777E-15  -6.51343146817899E-15  -5.11020653246415E-15  -4.49684577904899E-11   5.11020652238896E-15
      1.00000000000000E+01
      2.50000000000000E+00   0.00000000000000E+00  -2.04788787505339E-09   5.06516734933568E-15  -5.24693587321875E-15
     -5.06516734544245E-15  -5.18345757200487E-15  -5.06516735227131E-15  -4.61838215145572E-11   5.06516733949460E-15
      1.00000000000000E+01
      2.56250000000000E+00   0.00000000000000E+00  -6.62373229616675E-10   5.02119947487437E-15  -5.21028564608384E-15
     -5.02119947471532E-15  -5.20856721946068E-15  -5.02119947827311E-15  -4.25377303423553E-11   5.02119946990091E-15
      1.00000000000000E+01
      2.62500000000000E+00   0.00000000000000E+00  -1.61764911673357E-09   4.97818822871247E-15  -6.40864966586174E-15
     -4.97818822649680E-15  -6.41779708774813E-15  -4.97818823078545E-15  -4.49684577904899E-11   4.97818822002311E-15
      1.00000000000000E+01
      2.68750000000000E+00   0.00000000000000E+00   2.41735844716985E-09   4.93611128362582E-15  -7.12261612628281E-15
     -4.93611128393775E-15  -7.14106532441685E-15  -4.93611128908891E-15  -4.13223666182880E-11   4.93611128020481E-15
      1.00000000000000E+01
      2.75000000000000E+00   0.00000000000000E+00  -1.61764911673357E-09   4.89487264098846E-15  -6.31117516499043E-15
     -4.89487263916857E-15  -6.20501384641965E-15  -4.89487265309179E-15  -3.52455479979515E-11   4.89487264154142E-15
      1.00000000000000E+01
      2.81250000000000E+00   0.00000000000000E+00   6.70880775685146E-10   4.85442059327716E-15  -5.01796944673138E-15
     -4.85442059394586E-15  -5.04527882762831E-15  -4.85442059990537E-15  -4.13223666182880E-11   4.85442059238016E-15
      1.00000000000000E+01
      2.87500000000000E+00   0.00000000000000E+00   3.31794296670371E-10   4.81468998568029E-15  -4.94018302396624E-15
     -4.81468998513814E-15  -4.92916434182303E-15  -4.81468999550828E-15  -3.52455479979515E-11   4.81468998609542E-15
      1.00000000000000E+01
      2.93750000000000E+00   0.00000000000000E+00  -1.05736643993855E-10   4.77559909666595E-15  -6.00705947812111E-15
     -4.77559909617752E-15  -5.97952961935643E-15  -4.77559909987635E-15  -3.28148205498169E-11   4.77559909020684E-15
      1.00000000000000E+01
      3.00000000000000E+00   0.00000000000000E+00  -2.01264232705544E-09   4.73708758646345E-15  -6.88032916787934E-15
     -4.73708758610765E-15  -6.88467991666828E-15  -4.73708758328401E-15  -3.64609117220188E-11   4.73708757459750E-15
      1.00000000000000E+01
      3.06250000000000E+00   0.00000000000000E+00  -9.63783433185365E-10   4.69906429914237E-15  -6.37011317918039E-15
     -4.69906429872860E-15  -6.38197691651343E-15  -4.69906430120287E-15  -3.88916391701534E-11   4.69906429279747E-15
      1.00000000000000E+01
      3.12500000000000E+00   0.00000000000000E+00  -3.11133113361227E-10   4.66146671735676E-15  -5.17130529412640E-15
     -4.66146671647805E-15  -5.16420953613998E-15  -4.66146672007336E-15  -4.25377303423553E-11   4.66146671002067E-15
      1.00000000000000E+01
      3.18750000000000E+00   0.00000000000000E+00  -1.26397827302999E-09   4.62419311426791E-15  -4.75190298020511E-15
     -4.62419311219299E-15  -4.71348063070249E-15  -4.62419311819508E-15  -3.88916391701534E-11   4.62419310710448E-15
      1.00000000000000E+01
      3.25000000000000E+00   0.00000000000000E+00  -3.91347119149669E-10   4.58714638462059E-15  -5.50083841097278E-15
     -4.58714638383333E-15  -5.48961182798026E-15  -4.58714639487004E-15  -3.88916391701534E-11   4.58714638484369E-15
      1.00000000000000E+01
      3.31250000000000E+00   0.00000000000000E+00   7.53525508921723E-10   4.55022520961371E-15  -6.59205920578015E-15
     -4.55022520883324E-15  -6.56981003113750E-15  -4.55022521028836E-15  -3.88916391701534E-11   4.55022520002772E-15
      1.00000000000000E+01
      3.37500000000000E+00   0.00000000000000E+00   3.25960550794848E-09   4.51330525493784E-15  -6.61795510174281E-15
     -4.51330525551866E-15  -6.63982067518868E-15  -4.51330526015486E-15  -3.64609117220188E-11   4.51330525238044E-15
      1.00000000000000E+01
      3.43750000000000E+00   0.00000000000000E+00  -1.00875189097585E-09   4.47623915012451E-15  -5.57141840733354E-15
     -4.47623915074588E-15  -5.59445476116976E-15  -4.47623915175126E-15  -4.49684577904899E-11   4.47623914325448E-15
      1.00000000000000E+01
      3.50000000000000E+00   0.00000000000000E+00  -1.47059010612143E-10   4.43887548823913E-15  -4.80324936288723E-15
     -4.43887548685326E-15  -4.83363905773530E-15  -4.43887549468378E-15  -3.88916391701534E-11   4.43887548355386E-15
      1.00000000000000E+01
      3.56250000000000E+00   0.00000000000000E+00  -5.83374587552301E-10   4.40102167064933E-15  -5.08085321071982E-15
     -4.40102167038561E-15  -5.06539100731367E-15  -4.40102167817383E-15  -3.88916391701534E-11   4.40102166915510E-15
      1.00000000000000E+01
      3.62500000000000E+00   0.00000000000000E+00  -2.83787429569713E-09   4.36245496740197E-15  -6.17704885136836E-15
     -4.36245496761816E-15  -6.17311253898718E-15  -4.36245497181203E-15  -3.88916391701534E-11   4.36245496341421E-15
      1.00000000000000E+01
      3.68750000000000E+00   0.00000000000000E+00   1.65411002845559E-09   4.32290218645301E-15  -6.86592219373102E-15
     -4.32290218594894E-15  -6.86327479807515E-15  -4.32290218568260E-15  -4.25377303423553E-11   4.32290217778012E-15
      1.00000000000000E+01
      3.75000000000000E+00   0.00000000000000E+00  -3.07973167678652E-09   4.28205389444727E-15  -6.28425614895994E-15
     -4.28205389444082E-15  -6.31112342976654E-15  -4.28205389441811E-15  -4.49684577904899E-11   4.28205388614862E-15
      1.00000000000000E+01
      3.81250000000000E+00   0.00000000000000E+00  -5.11668127832331E-10   4.23951318971762E-15  -5.24487994476345E-15
     -4.23951319037101E-15  -5.28117226810283E-15  -4.23951319839493E-15  -3.52455479979515E-11   4.23951319048379E-15
      1.00000000000000E+01
      3.87500000000000E+00   0.00000000000000E+00   1.01969016449246E-09   4.19483709496912E-15  -5.06905764174936E-15
     -4.19483709458968E-15  -5.05998691742133E-15  -4.19483709984613E-15  -4.13223666182880E-11   4.19483708993857E-15
      1.00000000000000E+01
      3.93750000000000E+00   0.00000000000000E+00  -1.61157229811323E-09   4.14747818202337E-15  -5.91388978486941E-15
     -4.14747818278343E-15  -5.94509640213597E-15  -4.14747818369761E-15  -3.88916391701534E-11   4.14747817685444E-15
      1.00000000000000E+01
      4.00000000000000E+00   0.00000000000000E+00  -2.65678510081111E-09   4.09681740400240E-15  -7.06915605376243E-15
     -4.09681740348149E-15  -7.05934200315711E-15  -4.09681740781579E-15  -3.64609117220188E-11   4.09681739806003E-15
      1.00000000000000E+01
      4.06250000000000E+00   0.00000000000000E+00   6.06466498309580E-10   4.04218098509564E-15  -7.15397975946624E-15
     -4.04218098457405E-15  -7.13252759518968E-15  -4.04218098715752E-15  -4.25377303423553E-11   4.04218097809399E-15
      1.00000000000000E+01
      4.12500000000000E+00   0.00000000000000E+00   1.31380818571675E-09   3.98288520194410E-15  -6.17861854809225E-15
     -3.98288520205511E-15  -6.19474507035418E-15  -3.98288520441334E-15  -3.52455479979515E-11   3.98288519554668E-15
      1.00000000000000E+01
      4.18749999999999E+00   0.00000000000000E+00  -2.23383852483569E-09   3.91841891518673E-15  -5.54812383452137E-15
     -3.91841891721504E-15  -5.70764158393168E-15  -3.91841891590806E-15  -4.25377303423553E-11   3.91841890686029E-15
      1.00000000000000E+01
      4.24999999999999E+00   0.00000000000000E+00   1.81939949492874E-09   3.84866494609436E-15  -6.40120759599428E-15
     -3.84866494594736E-15  -6.40652468426693E-15  -3.84866494584587E-15  -4.49684577904899E-11   3.84866493755475E-15
      1.00000000000000E+01
      4.31249999999999E+00   0.00000000000000E+00  -1.04156671152567E-09   3.77432438784586E-15  -7.80727730270673E-15
     -3.77432438701020E-15  -7.79587889631924E-15  -3.77432439109968E-15  -4.25377303423553E-11   3.77432438184535E-15
      1.00000000000000E+01
      4.37499999999999E+00   0.00000000000000E+00  -6.75742230581416E-10   3.69730849167204E-15  -8.17496561897398E-15
     -3.69730849118423E-15  -8.17474447718396E-15  -3.69730849349922E-15  -3.64609117220188E-11   3.69730848441971E-15
      1.00000000000000E+01
      4.43749999999999E+00   0.00000000000000E+00   7.00049505062762E-10   3.62097748446206E-15  -7.28313332638779E-15
     -3.62097748382117E-15  -7.28035639221878E-15  -3.62097748614062E-15  -4.13223666182880E-11   3.62097747587428E-15
      1.00000000000000E+01
      4.49999999999999E+00   0.00000000000000E+00   1.02090552821653E-10   3.54966563393798E-15  -6.89954729009548E-15
     -3.54966563383375E-15  -6.93510793009059E-15  -3.54966563523874E-15  -4.13223666182880E-11   3.54966562714389E-15
      1.00000000000000E+01
      4.56249999999999E+00   0.00000000000000E+00   6.10112589481782E-10   3.48750380032160E-15  -8.15941287630095E-15
     -3.48750380021011E-15  -8.20026597494666E-15  -3.48750380101349E-15  -4.98299126867591E-11   3.48750379259693E-15
      1.00000000000000E+01
      4.62499999999999E+00   0.00000000000000E+00  -7.99709330436280E-10   3.43706267164284E-15  -9.59037900737919E-15
     -3.43706267162864E-15  -9.63390519532732E-15  -3.43706267190912E-15  -4.13223666182880E-11   3.43706266336941E-15
      1.00000000000000E+01
      4.68749999999999E+00   0.00000000000000E+00  -5.93097497344840E-10   3.39868217010556E-15  -9.45877150119183E-15
     -3.39868217016045E-15  -9.49639428321057E-15  -3.39868217018395E-15  -4.13223666182880E-11   3.39868216217718E-15
      1.00000000000000E+01
      4.74999999999999E+00   0.00000000000000E+00  -5.83374587552301E-10   3.37095968394915E-15  -9.09598950665032E-15
     -3.37095968391927E-15  -9.12357934824062E-15  -3.37095968401095E-15  -3.52455479979515E-11   3.37095967522471E-15
      1.00000000000000E+01
      4.81249999999999E+00   0.00000000000000E+00   4.26592667147620E-10   3.35163754254771E-15  -1.04303833040892E-14
     -3.35163754254221E-15  -1.04567614079508E-14  -3.35163754257435E-15  -4.61838215145572E-11   3.35163753305464E-15
      1.00000000000000E+01
      4.87499999999999E+00   0.00000000000000E+00  -2.22411561504315E-10   3.33843474170220E-15  -1.28715886302908E-14
     -3.33843474163883E-15  -1.28553534300909E-14  -3.33843474171421E-15  -4.25377303423553E-11   3.33843473397153E-15
      1.00000000000000E+01
      4.93749999999999E+00   0.00000000000000E+00  -1.08410444186803E-09   3.32946138553253E-15  -1.45184553290675E-14
     -3.32946138556054E-15  -1.45598688990761E-14  -3.32946138553649E-15  -3.88916391701534E-11   3.32946137617238E-15
      1.00000000000000E+01
      5.00000000000000E+00   0.00000000000000E+00   1.05615107621448E-09   3.32331443334008E-15  -1.62227597864745E-14
     -3.32331443337155E-15  -1.62778521016014E-14  -3.32331443334214E-15  -4.86145489626918E-11   3.32331442404425E-15
}
