DF-ISE text

Info {
  version   = 1.0
  type      = xyplot
  datasets  = [
    "frequency"
    "v(g)" "v(b)" "a(g,g)" "c(g,g)" "a(g,b)"
    "c(g,b)" "a(b,g)" "c(b,g)" "a(b,b)" "c(b,b)" ]
  functions = [
    Frequency
    Voltage Voltage Admittance Capacitance Admittance
    Capacitance Admittance Capacitance Admittance Capacitance ]
}

Data {
      1.00000000000000E+00
      2.00000000000000E+01   0.00000000000000E+00  -3.21405841118746E+09   1.74342222218780E-16  -7.72796106613945E-03
     -1.74342222016061E-16  -7.72796106614878E-03  -1.74342222014582E-16  -3.21405841118746E+09   1.74342222029223E-16
      1.80472176682717E+00
      2.00000000000000E+01   0.00000000000000E+00  -3.21405841118746E+09   1.74342222227867E-16  -7.72796106613945E-03
     -1.74342222016022E-16  -7.72796106614878E-03  -1.74342222014534E-16  -3.21405841118746E+09   1.74342222028387E-16
      3.25702065565978E+00
      2.00000000000000E+01   0.00000000000000E+00  -3.21405841118746E+09   1.74342222239176E-16  -7.72796106613945E-03
     -1.74342222016027E-16  -7.72796106614878E-03  -1.74342222014533E-16  -3.21405841118746E+09   1.74342222028325E-16
      5.87801607227491E+00
      2.00000000000000E+01   0.00000000000000E+00  -3.21405841118746E+09   1.74342222227742E-16  -7.72796106613945E-03
     -1.74342222016035E-16  -7.72796106614878E-03  -1.74342222014545E-16  -3.21405841118746E+09   1.74342222029029E-16
      1.06081835513945E+01
      2.00000000000000E+01   0.00000000000000E+00  -3.21405841118746E+09   1.74342222234301E-16  -7.72796106613945E-03
     -1.74342222016036E-16  -7.72796106614878E-03  -1.74342222014544E-16  -3.21405841118746E+09   1.74342222029408E-16
      1.91448197616996E+01
      2.00000000000000E+01   0.00000000000000E+00  -3.21405841118746E+09   1.74342222217167E-16  -7.72796106613945E-03
     -1.74342222016027E-16  -7.72796106614878E-03  -1.74342222014542E-16  -3.21405841118746E+09   1.74342222029683E-16
      3.45510729459222E+01
      2.00000000000000E+01   0.00000000000000E+00  -3.21405841118746E+09   1.74342222220810E-16  -7.72796106613945E-03
     -1.74342222016057E-16  -7.72796106614878E-03  -1.74342222014574E-16  -3.21405841118746E+09   1.74342222028948E-16
      6.23550734127392E+01
      2.00000000000000E+01   0.00000000000000E+00  -3.21405841118746E+09   1.74342222218234E-16  -7.72796106613945E-03
     -1.74342222016015E-16  -7.72796106614878E-03  -1.74342222014518E-16  -3.21405841118746E+09   1.74342222029892E-16
      1.12533558260076E+02
      2.00000000000000E+01   0.00000000000000E+00  -3.21405841118746E+09   1.74342222214187E-16  -7.72796106613946E-03
     -1.74342222016021E-16  -7.72796106614878E-03  -1.74342222014526E-16  -3.21405841118746E+09   1.74342222029447E-16
      2.03091762090474E+02
      2.00000000000000E+01   0.00000000000000E+00  -3.21405841118746E+09   1.74342222231258E-16  -7.72796106613946E-03
     -1.74342222016028E-16  -7.72796106614878E-03  -1.74342222014542E-16  -3.21405841118746E+09   1.74342222029210E-16
      3.66524123707963E+02
      2.00000000000000E+01   0.00000000000000E+00  -3.21405841118746E+09   1.74342222228450E-16  -7.72796106613946E-03
     -1.74342222016028E-16  -7.72796106614878E-03  -1.74342222014534E-16  -3.21405841118746E+09   1.74342222029916E-16
      6.61474064123015E+02
      2.00000000000000E+01   0.00000000000000E+00  -3.21405841118746E+09   1.74342222240677E-16  -7.72796106613946E-03
     -1.74342222016031E-16  -7.72796106614878E-03  -1.74342222014545E-16  -3.21405841118746E+09   1.74342222028226E-16
      1.19377664171444E+03
      2.00000000000000E+01   0.00000000000000E+00  -3.21405841118746E+09   1.74342222231889E-16  -7.72796106613945E-03
     -1.74342222016031E-16  -7.72796106614877E-03  -1.74342222014542E-16  -3.21405841118746E+09   1.74342222030452E-16
      2.15443469003188E+03
      2.00000000000000E+01   0.00000000000000E+00  -3.21405841118746E+09   1.74342222220967E-16  -7.72796106613945E-03
     -1.74342222016027E-16  -7.72796106614877E-03  -1.74342222014541E-16  -3.21405841118746E+09   1.74342222028452E-16
      3.88815518030809E+03
      2.00000000000000E+01   0.00000000000000E+00  -3.21405841118746E+09   1.74342222220055E-16  -7.72796106613944E-03
     -1.74342222016035E-16  -7.72796106614877E-03  -1.74342222014549E-16  -3.21405841118746E+09   1.74342222029625E-16
      7.01703828670382E+03
      2.00000000000000E+01   0.00000000000000E+00  -3.21405841118746E+09   1.74342222230739E-16  -7.72796106613949E-03
     -1.74342222016042E-16  -7.72796106614880E-03  -1.74342222014563E-16  -3.21405841118746E+09   1.74342222027767E-16
      1.26638017346740E+04
      2.00000000000000E+01   0.00000000000000E+00  -3.21405841118746E+09   1.74342222222845E-16  -7.72796106613950E-03
     -1.74342222016015E-16  -7.72796106614877E-03  -1.74342222014566E-16  -3.21405841118746E+09   1.74342222029951E-16
      2.28546386413499E+04
      2.00000000000000E+01   0.00000000000000E+00  -3.21405841118746E+09   1.74342222239462E-16  -7.72796106613958E-03
     -1.74342222015720E-16  -7.72796106614870E-03  -1.74342222014373E-16  -3.21405841118746E+09   1.74342222030167E-16
      4.12462638290135E+04
      2.00000000000000E+01   0.00000000000000E+00  -3.21405841118746E+09   1.74342222212117E-16  -7.72796106613649E-03
     -1.74342222016238E-16  -7.72796106614503E-03  -1.74342222014912E-16  -3.21405841118746E+09   1.74342222024660E-16
      7.44380301325169E+04
      2.00000000000000E+01   0.00000000000000E+00  -3.21405841118746E+09   1.74342222231709E-16  -7.72796106613880E-03
     -1.74342222015787E-16  -7.72796106614804E-03  -1.74342222014158E-16  -3.21405841118746E+09   1.74342222028782E-16
      1.34339933259890E+05
      2.00000000000000E+01   0.00000000000000E+00  -3.21405841118746E+09   1.74342222218124E-16  -7.72796106613836E-03
     -1.74342222016689E-16  -7.72796106614759E-03  -1.74342222014978E-16  -3.21405841118746E+09   1.74342222026493E-16
      2.42446201708233E+05
      2.00000000000000E+01   0.00000000000000E+00  -3.21405841118746E+09   1.74342222247628E-16  -7.72796106613330E-03
     -1.74342222017418E-16  -7.72796106614274E-03  -1.74342222014753E-16  -3.21405841118746E+09   1.74342222036130E-16
      4.37547937507419E+05
      2.00000000000000E+01   0.00000000000000E+00  -3.21405841118746E+09   1.74342222201681E-16  -7.72796106614165E-03
     -1.74342222015743E-16  -7.72796106615201E-03  -1.74342222014061E-16  -3.21405841118746E+09   1.74342222022622E-16
      7.89652286849972E+05
      2.00000000000000E+01   0.00000000000000E+00  -3.21405841118746E+09   1.74342222245573E-16  -7.72796106614079E-03
     -1.74342222015002E-16  -7.72796106614998E-03  -1.74342222014002E-16  -3.21405841118746E+09   1.74342222035227E-16
      1.42510267030300E+06
      2.00000000000000E+01   0.00000000000000E+00  -3.21405841118746E+09   1.74342222239257E-16  -7.72796106613908E-03
     -1.74342222016488E-16  -7.72796106614867E-03  -1.74342222014554E-16  -3.21405841118746E+09   1.74342222030965E-16
      2.57191380905934E+06
      2.00000000000000E+01   0.00000000000000E+00  -3.21405841118746E+09   1.74342222227634E-16  -7.72796106613588E-03
     -1.74342222014772E-16  -7.72796106614572E-03  -1.74342222012940E-16  -3.21405841118746E+09   1.74342222030210E-16
      4.64158883361278E+06
      2.00000000000000E+01   0.00000000000000E+00  -3.21405841118746E+09   1.74342222212140E-16  -7.72796106612783E-03
     -1.74342222010629E-16  -7.72796106613753E-03  -1.74342222009051E-16  -3.21405841118746E+09   1.74342222025443E-16
      8.37677640068293E+06
      2.00000000000000E+01   0.00000000000000E+00  -3.21405841118746E+09   1.74342222199612E-16  -7.72796106609667E-03
     -1.74342221998742E-16  -7.72796106610453E-03  -1.74342221997329E-16  -3.21405841118746E+09   1.74342222011086E-16
      1.51177507061567E+07
      2.00000000000000E+01   0.00000000000000E+00  -3.21405841118746E+09   1.74342222175087E-16  -7.72796106600300E-03
     -1.74342221960854E-16  -7.72796106601105E-03  -1.74342221959200E-16  -3.21405841118746E+09   1.74342221971968E-16
      2.72833337648676E+07
      2.00000000000000E+01   0.00000000000000E+00  -3.21405841118746E+09   1.74342222055550E-16  -7.72796106569183E-03
     -1.74342221833713E-16  -7.72796106570014E-03  -1.74342221832221E-16  -3.21405841118746E+09   1.74342221850454E-16
      4.92388263170673E+07
      2.00000000000000E+01   0.00000000000000E+00  -3.21405841118746E+09   1.74342221648242E-16  -7.72796106468376E-03
     -1.74342221421952E-16  -7.72796106469066E-03  -1.74342221420636E-16  -3.21405841118746E+09   1.74342221437114E-16
      8.88623816274339E+07
      2.00000000000000E+01   0.00000000000000E+00  -3.21405841118746E+09   1.74342220284270E-16  -7.72796106139451E-03
     -1.74342220078650E-16  -7.72796106140321E-03  -1.74342220077140E-16  -3.21405841118746E+09   1.74342220088977E-16
      1.60371874375133E+08
      2.00000000000000E+01   0.00000000000000E+00  -3.21405841118746E+09   1.74342215896107E-16  -7.72796105068542E-03
     -1.74342215687521E-16  -7.72796105069526E-03  -1.74342215686632E-16  -3.21405841118746E+09   1.74342215701202E-16
      2.89426612471675E+08
      2.00000000000000E+01   0.00000000000000E+00  -3.21405841118746E+09   1.74342201454064E-16  -7.72796101581770E-03
     -1.74342201248761E-16  -7.72796101582759E-03  -1.74342201247744E-16  -3.21405841118746E+09   1.74342201261795E-16
      5.22334507426686E+08
      2.00000000000000E+01   0.00000000000000E+00  -3.21405841118746E+09   1.74342153592772E-16  -7.72796090225314E-03
     -1.74342153387644E-16  -7.72796090226010E-03  -1.74342153385857E-16  -3.21405841118746E+09   1.74342153399073E-16
      9.42668455117888E+08
      2.00000000000000E+01   0.00000000000000E+00  -3.21405841118746E+09   1.74341995342097E-16  -7.72796053236839E-03
     -1.74341995139496E-16  -7.72796053236932E-03  -1.74341995137749E-16  -3.21405841118746E+09   1.74341995149973E-16
      1.70125427985259E+09
      2.00000000000000E+01   0.00000000000000E+00  -3.21405841118746E+09   1.74341477147617E-16  -7.72795932758691E-03
     -1.74341476951483E-16  -7.72795932759435E-03  -1.74341476950103E-16  -3.21405841118746E+09   1.74341476963779E-16
      3.07029062975785E+09
      2.00000000000000E+01   0.00000000000000E+00  -3.21405841118746E+09   1.74339787544802E-16  -7.72795540306426E-03
     -1.74339787351617E-16  -7.72795540307282E-03  -1.74339787350944E-16  -3.21405841118746E+09   1.74339787365271E-16
      5.54102033000949E+09
      2.00000000000000E+01   0.00000000000000E+00  -3.21405841118746E+09   1.74334292783565E-16  -7.72794261491507E-03
     -1.74334292577175E-16  -7.72794261492284E-03  -1.74334292576256E-16  -3.21405841118746E+09   1.74334292590349E-16
      1.00000000000000E+10
      2.00000000000000E+01   0.00000000000000E+00  -3.21405841118746E+09   1.74316523368097E-16  -7.72790090103475E-03
     -1.74316523168395E-16  -7.72790090103132E-03  -1.74316523166141E-16  -3.21405841118746E+09   1.74316523177217E-16
}
