DF-ISE text

Info {
  version   = 1.0
  type      = xyplot
  datasets  = [
    "frequency"
    "v(g)" "v(b)" "a(g,g)" "c(g,g)" "a(g,b)"
    "c(g,b)" "a(b,g)" "c(b,g)" "a(b,b)" "c(b,b)" ]
  functions = [
    Frequency
    Voltage Voltage Admittance Capacitance Admittance
    Capacitance Admittance Capacitance Admittance Capacitance ]
}

Data {
      1.00000000000000E+00
      2.00000000000000E+01   0.00000000000000E+00  -3.21405841118746E+09   1.74342196763902E-16  -7.72795940783520E-03
     -1.74342196556563E-16  -7.72795940783633E-03  -1.74342196554838E-16  -3.21405841118746E+09   1.74342196564704E-16
      1.80472176682717E+00
      2.00000000000000E+01   0.00000000000000E+00  -3.21405841118746E+09   1.74342196772687E-16  -7.72795940783520E-03
     -1.74342196556561E-16  -7.72795940783633E-03  -1.74342196554830E-16  -3.21405841118746E+09   1.74342196564731E-16
      3.25702065565978E+00
      2.00000000000000E+01   0.00000000000000E+00  -3.21405841118746E+09   1.74342196764540E-16  -7.72795940783520E-03
     -1.74342196556578E-16  -7.72795940783633E-03  -1.74342196554851E-16  -3.21405841118746E+09   1.74342196565795E-16
      5.87801607227491E+00
      2.00000000000000E+01   0.00000000000000E+00  -3.21405841118746E+09   1.74342196771088E-16  -7.72795940783520E-03
     -1.74342196556564E-16  -7.72795940783633E-03  -1.74342196554834E-16  -3.21405841118746E+09   1.74342196565478E-16
      1.06081835513945E+01
      2.00000000000000E+01   0.00000000000000E+00  -3.21405841118746E+09   1.74342196773192E-16  -7.72795940783520E-03
     -1.74342196556566E-16  -7.72795940783633E-03  -1.74342196554837E-16  -3.21405841118746E+09   1.74342196564848E-16
      1.91448197616996E+01
      2.00000000000000E+01   0.00000000000000E+00  -3.21405841118746E+09   1.74342196763310E-16  -7.72795940783520E-03
     -1.74342196556557E-16  -7.72795940783633E-03  -1.74342196554827E-16  -3.21405841118746E+09   1.74342196565043E-16
      3.45510729459222E+01
      2.00000000000000E+01   0.00000000000000E+00  -3.21405841118746E+09   1.74342196761648E-16  -7.72795940783520E-03
     -1.74342196556573E-16  -7.72795940783633E-03  -1.74342196554846E-16  -3.21405841118746E+09   1.74342196565508E-16
      6.23550734127392E+01
      2.00000000000000E+01   0.00000000000000E+00  -3.21405841118746E+09   1.74342196765398E-16  -7.72795940783520E-03
     -1.74342196556572E-16  -7.72795940783633E-03  -1.74342196554840E-16  -3.21405841118746E+09   1.74342196565513E-16
      1.12533558260076E+02
      2.00000000000000E+01   0.00000000000000E+00  -3.21405841118746E+09   1.74342196775671E-16  -7.72795940783520E-03
     -1.74342196556574E-16  -7.72795940783633E-03  -1.74342196554842E-16  -3.21405841118746E+09   1.74342196564946E-16
      2.03091762090474E+02
      2.00000000000000E+01   0.00000000000000E+00  -3.21405841118746E+09   1.74342196779282E-16  -7.72795940783520E-03
     -1.74342196556576E-16  -7.72795940783633E-03  -1.74342196554850E-16  -3.21405841118746E+09   1.74342196563779E-16
      3.66524123707963E+02
      2.00000000000000E+01   0.00000000000000E+00  -3.21405841118746E+09   1.74342196760106E-16  -7.72795940783520E-03
     -1.74342196556565E-16  -7.72795940783633E-03  -1.74342196554833E-16  -3.21405841118746E+09   1.74342196565698E-16
      6.61474064123015E+02
      2.00000000000000E+01   0.00000000000000E+00  -3.21405841118746E+09   1.74342196775380E-16  -7.72795940783520E-03
     -1.74342196556586E-16  -7.72795940783633E-03  -1.74342196554862E-16  -3.21405841118746E+09   1.74342196564374E-16
      1.19377664171444E+03
      2.00000000000000E+01   0.00000000000000E+00  -3.21405841118746E+09   1.74342196760810E-16  -7.72795940783520E-03
     -1.74342196556591E-16  -7.72795940783633E-03  -1.74342196554871E-16  -3.21405841118746E+09   1.74342196565284E-16
      2.15443469003188E+03
      2.00000000000000E+01   0.00000000000000E+00  -3.21405841118746E+09   1.74342196763422E-16  -7.72795940783520E-03
     -1.74342196556562E-16  -7.72795940783634E-03  -1.74342196554835E-16  -3.21405841118746E+09   1.74342196565289E-16
      3.88815518030809E+03
      2.00000000000000E+01   0.00000000000000E+00  -3.21405841118746E+09   1.74342196774007E-16  -7.72795940783519E-03
     -1.74342196556564E-16  -7.72795940783632E-03  -1.74342196554830E-16  -3.21405841118746E+09   1.74342196564121E-16
      7.01703828670382E+03
      2.00000000000000E+01   0.00000000000000E+00  -3.21405841118746E+09   1.74342196760998E-16  -7.72795940783521E-03
     -1.74342196556550E-16  -7.72795940783631E-03  -1.74342196554838E-16  -3.21405841118746E+09   1.74342196565286E-16
      1.26638017346740E+04
      2.00000000000000E+01   0.00000000000000E+00  -3.21405841118746E+09   1.74342196763144E-16  -7.72795940783539E-03
     -1.74342196556518E-16  -7.72795940783649E-03  -1.74342196554843E-16  -3.21405841118746E+09   1.74342196565564E-16
      2.28546386413499E+04
      2.00000000000000E+01   0.00000000000000E+00  -3.21405841118746E+09   1.74342196775758E-16  -7.72795940783545E-03
     -1.74342196556246E-16  -7.72795940783648E-03  -1.74342196554642E-16  -3.21405841118746E+09   1.74342196565661E-16
      4.12462638290135E+04
      2.00000000000000E+01   0.00000000000000E+00  -3.21405841118746E+09   1.74342196764961E-16  -7.72795940783233E-03
     -1.74342196556861E-16  -7.72795940783273E-03  -1.74342196555276E-16  -3.21405841118746E+09   1.74342196559738E-16
      7.44380301325169E+04
      2.00000000000000E+01   0.00000000000000E+00  -3.21405841118746E+09   1.74342196764483E-16  -7.72795940783486E-03
     -1.74342196556290E-16  -7.72795940783587E-03  -1.74342196554453E-16  -3.21405841118746E+09   1.74342196564175E-16
      1.34339933259890E+05
      2.00000000000000E+01   0.00000000000000E+00  -3.21405841118746E+09   1.74342196766414E-16  -7.72795940783495E-03
     -1.74342196556993E-16  -7.72795940783643E-03  -1.74342196555144E-16  -3.21405841118746E+09   1.74342196562022E-16
      2.42446201708233E+05
      2.00000000000000E+01   0.00000000000000E+00  -3.21405841118746E+09   1.74342196788764E-16  -7.72795940782951E-03
     -1.74342196557632E-16  -7.72795940783147E-03  -1.74342196554760E-16  -3.21405841118746E+09   1.74342196571479E-16
      4.37547937507419E+05
      2.00000000000000E+01   0.00000000000000E+00  -3.21405841118746E+09   1.74342196740094E-16  -7.72795940783615E-03
     -1.74342196555941E-16  -7.72795940783849E-03  -1.74342196554188E-16  -3.21405841118746E+09   1.74342196558013E-16
      7.89652286849972E+05
      2.00000000000000E+01   0.00000000000000E+00  -3.21405841118746E+09   1.74342196787172E-16  -7.72795940783583E-03
     -1.74342196555247E-16  -7.72795940783736E-03  -1.74342196554072E-16  -3.21405841118746E+09   1.74342196569201E-16
      1.42510267030300E+06
      2.00000000000000E+01   0.00000000000000E+00  -3.21405841118746E+09   1.74342196779778E-16  -7.72795940783291E-03
     -1.74342196556428E-16  -7.72795940783489E-03  -1.74342196554364E-16  -3.21405841118746E+09   1.74342196567132E-16
      2.57191380905934E+06
      2.00000000000000E+01   0.00000000000000E+00  -3.21405841118746E+09   1.74342196765402E-16  -7.72795940783201E-03
     -1.74342196555143E-16  -7.72795940783437E-03  -1.74342196553125E-16  -3.21405841118746E+09   1.74342196565708E-16
      4.64158883361278E+06
      2.00000000000000E+01   0.00000000000000E+00  -3.21405841118746E+09   1.74342196757784E-16  -7.72795940782150E-03
     -1.74342196551072E-16  -7.72795940782298E-03  -1.74342196549425E-16  -3.21405841118746E+09   1.74342196560392E-16
      8.37677640068293E+06
      2.00000000000000E+01   0.00000000000000E+00  -3.21405841118746E+09   1.74342196745810E-16  -7.72795940779218E-03
     -1.74342196538350E-16  -7.72795940779402E-03  -1.74342196536810E-16  -3.21405841118746E+09   1.74342196546473E-16
      1.51177507061567E+07
      2.00000000000000E+01   0.00000000000000E+00  -3.21405841118746E+09   1.74342196704512E-16  -7.72795940769719E-03
     -1.74342196500511E-16  -7.72795940769927E-03  -1.74342196498736E-16  -3.21405841118746E+09   1.74342196509361E-16
      2.72833337648676E+07
      2.00000000000000E+01   0.00000000000000E+00  -3.21405841118746E+09   1.74342196581795E-16  -7.72795940738876E-03
     -1.74342196374392E-16  -7.72795940738934E-03  -1.74342196372474E-16  -3.21405841118746E+09   1.74342196385379E-16
      4.92388263170673E+07
      2.00000000000000E+01   0.00000000000000E+00  -3.21405841118746E+09   1.74342196180916E-16  -7.72795940637900E-03
     -1.74342195961761E-16  -7.72795940638120E-03  -1.74342195960047E-16  -3.21405841118746E+09   1.74342195972684E-16
      8.88623816274339E+07
      2.00000000000000E+01   0.00000000000000E+00  -3.21405841118746E+09   1.74342194815384E-16  -7.72795940309014E-03
     -1.74342194618355E-16  -7.72795940309351E-03  -1.74342194616891E-16  -3.21405841118746E+09   1.74342194625957E-16
      1.60371874375133E+08
      2.00000000000000E+01   0.00000000000000E+00  -3.21405841118746E+09   1.74342190423220E-16  -7.72795939238425E-03
     -1.74342190228967E-16  -7.72795939238543E-03  -1.74342190227196E-16  -3.21405841118746E+09   1.74342190237524E-16
      2.89426612471675E+08
      2.00000000000000E+01   0.00000000000000E+00  -3.21405841118746E+09   1.74342176001268E-16  -7.72795935751732E-03
     -1.74342175791342E-16  -7.72795935751848E-03  -1.74342175789306E-16  -3.21405841118746E+09   1.74342175797098E-16
      5.22334507426686E+08
      2.00000000000000E+01   0.00000000000000E+00  -3.21405841118746E+09   1.74342128131740E-16  -7.72795924394396E-03
     -1.74342127926389E-16  -7.72795924394836E-03  -1.74342127924992E-16  -3.21405841118746E+09   1.74342127936264E-16
      9.42668455117888E+08
      2.00000000000000E+01   0.00000000000000E+00  -3.21405841118746E+09   1.74341969897902E-16  -7.72795887405344E-03
     -1.74341969679880E-16  -7.72795887405286E-03  -1.74341969678428E-16  -3.21405841118746E+09   1.74341969691303E-16
      1.70125427985259E+09
      2.00000000000000E+01   0.00000000000000E+00  -3.21405841118746E+09   1.74341451702743E-16  -7.72795766926727E-03
     -1.74341451497272E-16  -7.72795766926858E-03  -1.74341451495598E-16  -3.21405841118746E+09   1.74341451506146E-16
      3.07029062975785E+09
      2.00000000000000E+01   0.00000000000000E+00  -3.21405841118746E+09   1.74339762103843E-16  -7.72795374469946E-03
     -1.74339761904596E-16  -7.72795374470379E-03  -1.74339761903935E-16  -3.21405841118746E+09   1.74339761916656E-16
      5.54102033000949E+09
      2.00000000000000E+01   0.00000000000000E+00  -3.21405841118746E+09   1.74334267365732E-16  -7.72794095641607E-03
     -1.74334267157565E-16  -7.72794095641431E-03  -1.74334267155559E-16  -3.21405841118746E+09   1.74334267163500E-16
      1.00000000000000E+10
      2.00000000000000E+01   0.00000000000000E+00  -3.21405841118746E+09   1.74316498003410E-16  -7.72789924208887E-03
     -1.74316497811965E-16  -7.72789924209477E-03  -1.74316497810976E-16  -3.21405841118746E+09   1.74316497822595E-16
}
