DF-ISE text

Info {
  version   = 1.0
  type      = xyplot
  datasets  = [
    "frequency"
    "v(g)" "v(b)" "a(g,g)" "c(g,g)" "a(g,b)"
    "c(g,b)" "a(b,g)" "c(b,g)" "a(b,b)" "c(b,b)" ]
  functions = [
    Frequency
    Voltage Voltage Admittance Capacitance Admittance
    Capacitance Admittance Capacitance Admittance Capacitance ]
}

Data {
      1.00000000000000E+00
      2.00000000000000E+01   0.00000000000000E+00  -3.21405841119519E+09   3.54625183167331E-15  -7.17001561574965E-10
     -3.54625183170148E-15  -7.17001566045821E-10  -3.54625183167362E-15  -3.21405841119519E+09   3.54625182916351E-15
      1.80472176682717E+00
      2.00000000000000E+01   0.00000000000000E+00  -3.21405841119519E+09   3.54625183167318E-15  -7.17001559364248E-10
     -3.54625183169978E-15  -7.17001565882356E-10  -3.54625183167328E-15  -3.21405841119519E+09   3.54625183001529E-15
      3.25702065565978E+00
      2.00000000000000E+01   0.00000000000000E+00  -3.21405841119519E+09   3.54625183167462E-15  -7.17001554955498E-10
     -3.54625183169911E-15  -7.17001568001596E-10  -3.54625183167274E-15  -3.21405841119519E+09   3.54625182983127E-15
      5.87801607227491E+00
      2.00000000000000E+01   0.00000000000000E+00  -3.21405841119519E+09   3.54625183167348E-15  -7.17001572501751E-10
     -3.54625183169790E-15  -7.17001567064577E-10  -3.54625183167290E-15  -3.21405841119519E+09   3.54625183055712E-15
      1.06081835513945E+01
      2.00000000000000E+01   0.00000000000000E+00  -3.21405841119519E+09   3.54625183167025E-15  -7.17001561931731E-10
     -3.54625183169512E-15  -7.17001565100761E-10  -3.54625183167144E-15  -3.21405841119519E+09   3.54625183408074E-15
      1.91448197616996E+01
      2.00000000000000E+01   0.00000000000000E+00  -3.21405841119519E+09   3.54625183166063E-15  -7.17001574787706E-10
     -3.54625183169247E-15  -7.17001567598052E-10  -3.54625183166174E-15  -3.21405841119519E+09   3.54625183720350E-15
      3.45510729459222E+01
      2.00000000000000E+01   0.00000000000000E+00  -3.21405841119519E+09   3.54625183156056E-15  -7.17001590491790E-10
     -3.54625183171009E-15  -7.17001580544013E-10  -3.54625183156547E-15  -3.21405841119519E+09   3.54625183536841E-15
      6.23550734127392E+01
      2.00000000000000E+01   0.00000000000000E+00  -3.21405841119519E+09   3.54625183167813E-15  -7.17001615748229E-10
     -3.54625183169083E-15  -7.17001572963214E-10  -3.54625183168049E-15  -3.21405841119519E+09   3.54625182844603E-15
      1.12533558260076E+02
      2.00000000000000E+01   0.00000000000000E+00  -3.21405841119519E+09   3.54625183153941E-15  -7.17001575003398E-10
     -3.54625183169384E-15  -7.17001584970654E-10  -3.54625183154554E-15  -3.21405841119519E+09   3.54625182933371E-15
      2.03091762090474E+02
      2.00000000000000E+01   0.00000000000000E+00  -3.21405841119519E+09   3.54625183176445E-15  -7.17001605724707E-10
     -3.54625183157140E-15  -7.17001555619686E-10  -3.54625183175980E-15  -3.21405841119519E+09   3.54625183526241E-15
      3.66524123707963E+02
      2.00000000000000E+01   0.00000000000000E+00  -3.21405841119519E+09   3.54625183169022E-15  -7.17001608232601E-10
     -3.54625183134518E-15  -7.17001565540611E-10  -3.54625183168038E-15  -3.21405841119519E+09   3.54625182875134E-15
      6.61474064123015E+02
      2.00000000000000E+01   0.00000000000000E+00  -3.21405841119519E+09   3.54625183077246E-15  -7.17001728602680E-10
     -3.54625183069258E-15  -7.17001663925419E-10  -3.54625183077339E-15  -3.21405841119519E+09   3.54625183234424E-15
      1.19377664171444E+03
      2.00000000000000E+01   0.00000000000000E+00  -3.21405841119519E+09   3.54625182889114E-15  -7.17001941076923E-10
     -3.54625182840434E-15  -7.17001845278060E-10  -3.54625182887910E-15  -3.21405841119519E+09   3.54625182928527E-15
      2.15443469003188E+03
      2.00000000000000E+01   0.00000000000000E+00  -3.21405841119519E+09   3.54625182123046E-15  -7.17002642056065E-10
     -3.54625182120804E-15  -7.17002621658634E-10  -3.54625182123257E-15  -3.21405841119519E+09   3.54625182054821E-15
      3.88815518030809E+03
      2.00000000000000E+01   0.00000000000000E+00  -3.21405841119519E+09   3.54625179799109E-15  -7.17005069424342E-10
     -3.54625179746957E-15  -7.17004959454722E-10  -3.54625179797825E-15  -3.21405841119519E+09   3.54625179224007E-15
      7.01703828670382E+03
      2.00000000000000E+01   0.00000000000000E+00  -3.21405841119519E+09   3.54625172084217E-15  -7.17012813906389E-10
     -3.54625172037604E-15  -7.17012744266598E-10  -3.54625172083049E-15  -3.21405841119519E+09   3.54625172377153E-15
      1.26638017346740E+04
      2.00000000000000E+01   0.00000000000000E+00  -3.21405841119519E+09   3.54625146944275E-15  -7.17038213248826E-10
     -3.54625146933382E-15  -7.17038123987251E-10  -3.54625146944154E-15  -3.21405841119519E+09   3.54625147296683E-15
      2.28546386413499E+04
      2.00000000000000E+01   0.00000000000000E+00  -3.21405841119519E+09   3.54625065201683E-15  -7.17120773968089E-10
     -3.54625065146052E-15  -7.17120622996958E-10  -3.54625065200236E-15  -3.21405841119519E+09   3.54625065255443E-15
      4.12462638290135E+04
      2.00000000000000E+01   0.00000000000000E+00  -3.21405841119519E+09   3.54624798806597E-15  -7.17389507198943E-10
     -3.54624798790484E-15  -7.17389487773905E-10  -3.54624798806176E-15  -3.21405841119519E+09   3.54624798483263E-15
      7.44380301325169E+04
      2.00000000000000E+01   0.00000000000000E+00  -3.21405841119519E+09   3.54623931255409E-15  -7.18265105587750E-10
     -3.54623931266496E-15  -7.18265091000477E-10  -3.54623931255907E-15  -3.21405841119519E+09   3.54623931064608E-15
      1.34339933259890E+05
      2.00000000000000E+01   0.00000000000000E+00  -3.21405841119519E+09   3.54621105944365E-15  -7.21116659050874E-10
     -3.54621105879158E-15  -7.21116576289875E-10  -3.54621105942536E-15  -3.21405841119519E+09   3.54621105437627E-15
      2.42446201708233E+05
      2.00000000000000E+01   0.00000000000000E+00  -3.21405841119519E+09   3.54611905512872E-15  -7.30402430226311E-10
     -3.54611905469248E-15  -7.30402302135230E-10  -3.54611905512255E-15  -3.21405841119519E+09   3.54611905432541E-15
      4.37547937507419E+05
      2.00000000000000E+01   0.00000000000000E+00  -3.21405841119519E+09   3.54581959745646E-15  -7.60625795839432E-10
     -3.54581959660206E-15  -7.60625655450592E-10  -3.54581959743738E-15  -3.21405841119519E+09   3.54581959522119E-15
      7.89652286849972E+05
      2.00000000000000E+01   0.00000000000000E+00  -3.21405841119519E+09   3.54484638641630E-15  -8.58849038196467E-10
     -3.54484638630500E-15  -8.58848945154078E-10  -3.54484638641433E-15  -3.21405841119519E+09   3.54484638843736E-15
      1.42510267030300E+06
      2.00000000000000E+01   0.00000000000000E+00  -3.21405841119519E+09   3.54169905051964E-15  -1.17650074213240E-09
     -3.54169904995475E-15  -1.17650060924711E-09  -3.54169905050560E-15  -3.21405841119519E+09   3.54169904997843E-15
      2.57191380905934E+06
      2.00000000000000E+01   0.00000000000000E+00  -3.21405841119519E+09   3.53168027596460E-15  -2.18767183053639E-09
     -3.53168027554384E-15  -2.18767177555118E-09  -3.53168027595434E-15  -3.21405841119519E+09   3.53168027865476E-15
      4.64158883361278E+06
      2.00000000000000E+01   0.00000000000000E+00  -3.21405841119519E+09   3.50132739851709E-15  -5.25116304454928E-09
     -3.50132739712990E-15  -5.25116286717636E-09  -3.50132739848334E-15  -3.21405841119519E+09   3.50132739670212E-15
      8.37677640068293E+06
      2.00000000000000E+01   0.00000000000000E+00  -3.21405841119519E+09   3.42161807134714E-15  -1.32965863069275E-08
     -3.42161807090510E-15  -1.32965861697408E-08  -3.42161807133782E-15  -3.21405841119519E+09   3.42161806880552E-15
      1.51177507061567E+07
      2.00000000000000E+01   0.00000000000000E+00  -3.21405841119519E+09   3.27247525694778E-15  -2.83532940655410E-08
     -3.27247525685917E-15  -2.83532940415341E-08  -3.27247525694658E-15  -3.21405841119519E+09   3.27247525427853E-15
      2.72833337648676E+07
      2.00000000000000E+01   0.00000000000000E+00  -3.21405841119519E+09   3.11346764137569E-15  -4.44215972351963E-08
     -3.11346764134925E-15  -4.44215971987547E-08  -3.11346764137569E-15  -3.21405841119519E+09   3.11346764266456E-15
      4.92388263170673E+07
      2.00000000000000E+01   0.00000000000000E+00  -3.21405841119519E+09   3.01954389451347E-15  -5.39751448592261E-08
     -3.01954389456980E-15  -5.39751448576770E-08  -3.01954389451508E-15  -3.21405841119519E+09   3.01954389555702E-15
      8.88623816274339E+07
      2.00000000000000E+01   0.00000000000000E+00  -3.21405841119519E+09   2.98193844951964E-15  -5.80172639353840E-08
     -2.98193844949034E-15  -5.80172638182441E-08  -2.98193844952042E-15  -3.21405841119519E+09   2.98193845071439E-15
      1.60371874375133E+08
      2.00000000000000E+01   0.00000000000000E+00  -3.21405841119519E+09   2.96927609178729E-15  -6.01006411989199E-08
     -2.96927609178033E-15  -6.01006412322056E-08  -2.96927609178624E-15  -3.21405841119519E+09   2.96927609334727E-15
      2.89426612471675E+08
      2.00000000000000E+01   0.00000000000000E+00  -3.21405841119519E+09   2.96522479040180E-15  -6.31297473521927E-08
     -2.96522479040085E-15  -6.31297473102443E-08  -2.96522479040210E-15  -3.21405841119519E+09   2.96522479143884E-15
      5.22334507426686E+08
      2.00000000000000E+01   0.00000000000000E+00  -3.21405841119519E+09   2.96381081302992E-15  -7.17673265974652E-08
     -2.96381081303062E-15  -7.17673266145160E-08  -2.96381081302990E-15  -3.21405841119519E+09   2.96381081231664E-15
      9.42668455117888E+08
      2.00000000000000E+01   0.00000000000000E+00  -3.21405841119519E+09   2.96286708601975E-15  -9.91193113923219E-08
     -2.96286708601562E-15  -9.91193114320054E-08  -2.96286708601919E-15  -3.21405841119519E+09   2.96286708792919E-15
      1.70125427985259E+09
      2.00000000000000E+01   0.00000000000000E+00  -3.21405841119519E+09   2.96101341911738E-15  -1.83962620839163E-07
     -2.96101341911962E-15  -1.83962620852918E-07  -2.96101341911778E-15  -3.21405841119519E+09   2.96101341905096E-15
      3.07029062975785E+09
      2.00000000000000E+01   0.00000000000000E+00  -3.21405841119519E+09   2.95617086944073E-15  -4.23512427870497E-07
     -2.95617086944193E-15  -4.23512427836714E-07  -2.95617086944092E-15  -3.21405841119519E+09   2.95617086913369E-15
      5.54102033000949E+09
      2.00000000000000E+01   0.00000000000000E+00  -3.21405841119519E+09   2.94607652071358E-15  -9.62602652836855E-07
     -2.94607652071280E-15  -9.62602652870853E-07  -2.94607652071249E-15  -3.21405841119519E+09   2.94607652054136E-15
      1.00000000000000E+10
      2.00000000000000E+01   0.00000000000000E+00  -3.21405841119519E+09   2.93341124239553E-15  -1.84531674478540E-06
     -2.93341124239548E-15  -1.84531674475617E-06  -2.93341124239538E-15  -3.21405841119519E+09   2.93341124230951E-15
}
