DF-ISE text

Info {
  version   = 1.0
  type      = xyplot
  datasets  = [
    "time"
    "ntype OuterVoltage" "ntype InnerVoltage" "ntype QuasiFermiPotential" "ntype DisplacementCurrent" "ntype eCurrent"
    "ntype hCurrent" "ntype TotalCurrent" "ntype Charge" "ptype OuterVoltage" "ptype InnerVoltage"
    "ptype QuasiFermiPotential" "ptype DisplacementCurrent" "ptype eCurrent" "ptype hCurrent" "ptype TotalCurrent"
    "ptype Charge" ]
  functions = [
    Time
    OuterVoltage InnerVoltage QuasiFermiPotential DisplacementCurrent eCurrent
    hCurrent TotalCurrent Charge OuterVoltage InnerVoltage
    QuasiFermiPotential DisplacementCurrent eCurrent hCurrent TotalCurrent
    Charge ]
}

Data {
      0.00000000000000E+00
      0.00000000000000E+00   0.00000000000000E+00   0.00000000000000E+00   0.00000000000000E+00   1.19865017627662E-19
      5.47346595455673E-20   1.74599677173230E-19  -7.36315392975860E-29   0.00000000000000E+00   0.00000000000000E+00
      0.00000000000000E+00   0.00000000000000E+00  -1.09167314757162E-15   1.09149881522666E-15  -1.74332344965784E-19
      6.73147346612792E-28
      1.00000000000000E-02
      5.00000000000000E-02   5.00000000000000E-02   0.00000000000000E+00   0.00000000000000E+00   1.34903204027807E-15
     -1.91975128668862E-20   1.34901284276520E-15  -9.80423239702538E-30   0.00000000000000E+00   0.00000000000000E+00
      0.00000000000000E+00   0.00000000000000E+00  -2.02841443693828E-15   6.79401363461118E-16  -1.34901307347717E-15
      3.55347477970410E-28
      1.25000000000000E-02
      6.25000000000000E-02   6.25000000000001E-02   0.00000000000000E+00   0.00000000000000E+00   1.56018874433822E-15
      1.16200054259985E-21   1.56018990633876E-15  -1.99048296228319E-29   0.00000000000000E+00   0.00000000000000E+00
      0.00000000000000E+00   0.00000000000000E+00  -2.04054482616077E-15   4.80355060326800E-16  -1.56018976583397E-15
      3.55347477970410E-28
      2.25000000000000E-02
      1.12500000000000E-01   1.12500000000000E-01   0.00000000000000E+00   0.00000000000000E+00   2.59894305265756E-15
     -1.05734651936420E-21   2.59894199531104E-15   5.71681706457026E-29   0.00000000000000E+00   0.00000000000000E+00
      0.00000000000000E+00   0.00000000000000E+00  -1.08911259062645E-14   8.29218393948553E-15  -2.59894196677897E-15
      3.43347726535680E-28
      2.50000000000000E-02
      1.25000000000000E-01   1.25000000000000E-01   0.00000000000000E+00   0.00000000000000E+00   2.58445295911925E-15
      5.38464208735435E-20   2.58450680554013E-15   1.95419339141203E-29   0.00000000000000E+00   0.00000000000000E+00
      0.00000000000000E+00   0.00000000000000E+00  -6.74126769987641E-15   4.15676066987563E-15  -2.58450703000078E-15
      5.41537169586715E-28
      3.50000000000000E-02
      1.75000000000000E-01   1.75000000000000E-01   0.00000000000000E+00   0.00000000000000E+00   3.16390257282057E-15
     -4.50934406643177E-20   3.16385747937991E-15  -2.18463216644390E-29   0.00000000000000E+00   0.00000000000000E+00
      0.00000000000000E+00   0.00000000000000E+00  -3.44101396258372E-15   2.77156547269561E-16  -3.16385741531416E-15
      2.80639348070313E-28
      3.75000000000000E-02
      1.87500000000000E-01   1.87500000000000E-01   0.00000000000000E+00   0.00000000000000E+00   3.35181811529616E-15
     -2.00486526794846E-20   3.35179806664348E-15   1.60278938014295E-30   0.00000000000000E+00   0.00000000000000E+00
      0.00000000000000E+00   0.00000000000000E+00  -3.47308936225210E-15   1.21291318025503E-16  -3.35179804422660E-15
      5.53536921021445E-28
      4.75000000000000E-02
      2.37500000000000E-01   2.37500000000000E-01   0.00000000000000E+00   0.00000000000000E+00   4.03194486410325E-15
      6.23772161661423E-20   4.03200724131941E-15  -5.00796078022024E-30   0.00000000000000E+00   0.00000000000000E+00
      0.00000000000000E+00   0.00000000000000E+00  -4.17012377499173E-15   1.38116604906103E-16  -4.03200717008563E-15
      2.65155797831951E-28
      5.00000000000000E-02
      2.50000000000000E-01   2.50000000000000E-01   0.00000000000000E+00   0.00000000000000E+00   4.17304981900263E-15
     -3.40786637389756E-20   4.17301574033889E-15   1.49936410316014E-29   0.00000000000000E+00   0.00000000000000E+00
      0.00000000000000E+00   0.00000000000000E+00  -4.05715873456762E-15  -1.15856778832844E-16  -4.17301551340047E-15
      1.84641336592468E-28
      6.00000000000000E-02
      3.00000000000000E-01   3.00000000000000E-01   0.00000000000000E+00   0.00000000000000E+00   4.81798739620494E-15
     -1.88717328103901E-20   4.81796852447213E-15   1.20481375292255E-29   0.00000000000000E+00   0.00000000000000E+00
      0.00000000000000E+00   0.00000000000000E+00  -5.46642567385932E-15   6.48457202270651E-16  -4.81796847158867E-15
      2.03608685634462E-28
      6.25000000000000E-02
      3.12500000000000E-01   3.12500000000000E-01   0.00000000000000E+00   0.00000000000000E+00   4.98815377717077E-15
     -1.53209203307901E-20   4.98813845625044E-15   3.38944591936645E-29   0.00000000000000E+00   0.00000000000000E+00
      0.00000000000000E+00   0.00000000000000E+00  -5.77854887813258E-15   7.90410455752752E-16  -4.98813842237983E-15
      2.03221596878503E-28
      7.25000000000000E-02
      3.62500000000000E-01   3.62500000000000E-01   0.00000000000000E+00   0.00000000000000E+00   5.75446448228597E-15
      2.24951567397724E-20   5.75448697744271E-15   2.87352918681478E-29   0.00000000000000E+00   0.00000000000000E+00
      0.00000000000000E+00   0.00000000000000E+00  -6.10710462354741E-15   3.52617605562357E-16  -5.75448701798505E-15
      2.10963371997684E-28
      7.50000000000000E-02
      3.75000000000000E-01   3.75000000000000E-01   0.00000000000000E+00   0.00000000000000E+00   5.95304310323839E-15
     -3.69679390041761E-20   5.95300613529938E-15   9.36754789420907E-29   0.00000000000000E+00   0.00000000000000E+00
      0.00000000000000E+00   0.00000000000000E+00  -6.17907246583232E-15   2.26066285073307E-16  -5.95300618075901E-15
      3.34831773904580E-28
      8.50000000000000E-02
      4.25000000000000E-01   4.25000000000000E-01   0.00000000000000E+00   0.00000000000000E+00   6.65293251250841E-15
      1.03567398759169E-20   6.65294286924828E-15   6.53817101862087E-30   0.00000000000000E+00   0.00000000000000E+00
      0.00000000000000E+00   0.00000000000000E+00  -7.02169544045629E-15   3.68752447575701E-16  -6.65294299288059E-15
      2.35737052379063E-28
      8.75000000000000E-02
      4.37500000000000E-01   4.37500000000000E-01   0.00000000000000E+00   0.00000000000000E+00   6.80725190085514E-15
     -4.33938945880494E-20   6.80720850696055E-15   5.70169641004061E-29   0.00000000000000E+00   0.00000000000000E+00
      0.00000000000000E+00   0.00000000000000E+00  -7.10235413038703E-15   2.95145704931608E-16  -6.80720842545543E-15
      2.85284413141822E-28
      9.75000000000000E-02
      4.87500000000000E-01   4.87500000000000E-01   0.00000000000000E+00   0.00000000000000E+00   7.37404433704063E-15
      3.61605664601483E-20   7.37408049760709E-15   3.93499913479624E-29   0.00000000000000E+00   0.00000000000000E+00
      0.00000000000000E+00   0.00000000000000E+00  -7.54478141233665E-15   1.70700849817941E-16  -7.37408056251871E-15
      2.35737052379063E-28
      1.00000000000000E-01
      5.00000000000000E-01   5.00000000000000E-01   0.00000000000000E+00   0.00000000000000E+00   7.52019637617859E-15
      5.06278207071364E-20   7.52024700399930E-15   1.05608699496891E-28   0.00000000000000E+00   0.00000000000000E+00
      0.00000000000000E+00   0.00000000000000E+00  -7.56765059766201E-15   4.74035301014902E-17  -7.52024706756052E-15
      1.98576531806994E-28
      1.10000000000000E-01
      5.50000000000000E-01   5.50000000000000E-01   0.00000000000000E+00   0.00000000000000E+00   8.14994249561133E-15
     -9.63262704705290E-21   8.14993286298428E-15   6.43716504636281E-29   0.00000000000000E+00   0.00000000000000E+00
      0.00000000000000E+00   0.00000000000000E+00  -8.01839571150829E-15  -1.31537062137139E-16  -8.14993277364543E-15
      4.54055110739969E-28
      1.12500000000000E-01
      5.62500000000000E-01   5.62500000000000E-01   0.00000000000000E+00   0.00000000000000E+00   8.31436386110532E-15
     -2.05250952295854E-20   8.31434333601009E-15   9.24658265797187E-29   0.00000000000000E+00   0.00000000000000E+00
      0.00000000000000E+00   0.00000000000000E+00  -8.04334709411632E-15  -2.70996255641761E-16  -8.31434334975808E-15
      2.93026188261003E-28
      1.22500000000000E-01
      6.12500000000000E-01   6.12500000000000E-01   0.00000000000000E+00   0.00000000000000E+00   8.91535653614709E-15
     -9.79970704924496E-21   8.91534673644004E-15   5.80088790375511E-29   0.00000000000000E+00   0.00000000000000E+00
      0.00000000000000E+00   0.00000000000000E+00  -8.94798700339867E-15   3.26401781855136E-17  -8.91534682521315E-15
      2.00124886830830E-28
      1.25000000000000E-01
      6.25000000000000E-01   6.25000000000000E-01   0.00000000000000E+00   0.00000000000000E+00   9.04375807928546E-15
     -4.28018115143939E-20   9.04371527747395E-15  -2.51123830428435E-29   0.00000000000000E+00   0.00000000000000E+00
      0.00000000000000E+00   0.00000000000000E+00  -8.97473330003120E-15  -6.89818581965526E-17  -9.04371515822775E-15
      5.47343500926100E-28
      1.35000000000000E-01
      6.75000000000000E-01   6.75000000000000E-01   0.00000000000000E+00   0.00000000000000E+00   9.48488105852834E-15
     -4.62254992345038E-21   9.48487643597842E-15  -4.74062760813602E-29   0.00000000000000E+00   0.00000000000000E+00
      0.00000000000000E+00   0.00000000000000E+00  -9.43027249764909E-15  -5.46040796487995E-17  -9.48487657729789E-15
      2.12511727021520E-28
      1.37500000000000E-01
      6.87500000000000E-01   6.87500000000000E-01   0.00000000000000E+00   0.00000000000000E+00   9.58868207218337E-15
     -5.45124685181981E-21   9.58867662093652E-15   2.38301515387292E-29   0.00000000000000E+00   0.00000000000000E+00
      0.00000000000000E+00   0.00000000000000E+00  -9.41955357318087E-15  -1.69123160213018E-16  -9.58867673339389E-15
      4.35474850453934E-28
      1.47500000000000E-01
      7.37500000000000E-01   7.37500000000000E-01   0.00000000000000E+00   0.00000000000000E+00   1.00426191934982E-14
      4.28298301029827E-20   1.00426620233283E-14  -8.14640383439450E-29   0.00000000000000E+00   0.00000000000000E+00
      0.00000000000000E+00   0.00000000000000E+00  -1.03003985132400E-14   2.57736326421054E-16  -1.00426621868189E-14
      1.01030165305313E-28
      1.50000000000000E-01
      7.50000000000000E-01   7.50000000000000E-01   0.00000000000000E+00   0.00000000000000E+00   1.01711423651531E-14
     -2.17983127485837E-20   1.01711205668404E-14  -4.69103186127877E-29   0.00000000000000E+00   0.00000000000000E+00
      0.00000000000000E+00   0.00000000000000E+00  -1.07766873581299E-14   6.05566675788779E-16  -1.01711206823411E-14
      3.11606448547037E-28
      1.60000000000000E-01
      8.00000000000000E-01   8.00000000000000E-01   0.00000000000000E+00   0.00000000000000E+00   1.07057637549445E-14
      1.63967519838144E-20   1.07057801516965E-14   5.75189698307905E-29   0.00000000000000E+00   0.00000000000000E+00
      0.00000000000000E+00   0.00000000000000E+00  -1.07979823107475E-14   9.22021432796952E-17  -1.07057801674678E-14
      3.73540649500486E-28
      1.62500000000000E-01
      8.12500000000000E-01   8.12500000000000E-01   0.00000000000000E+00   0.00000000000000E+00   1.08336435695264E-14
      5.61214628669478E-20   1.08336996909893E-14  -6.21156488078042E-29   0.00000000000000E+00   0.00000000000000E+00
      0.00000000000000E+00   0.00000000000000E+00  -1.16863517152586E-14   8.52651960132379E-16  -1.08336997551262E-14
      3.73927738256445E-28
      1.72500000000000E-01
      8.62500000000000E-01   8.62500000000000E-01   0.00000000000000E+00   0.00000000000000E+00   1.12757771703098E-14
     -2.12231455922410E-20   1.12757559471642E-14  -4.62510580752949E-29   0.00000000000000E+00   0.00000000000000E+00
      0.00000000000000E+00   0.00000000000000E+00  -1.16784053931292E-14   4.02649368530753E-16  -1.12757560245985E-14
      4.51732578204214E-28
      1.75000000000000E-01
      8.75000000000000E-01   8.75000000000000E-01   0.00000000000000E+00   0.00000000000000E+00   1.13725227711833E-14
      7.88547753006798E-21   1.13725306566608E-14  -3.45355749457217E-30   0.00000000000000E+00   0.00000000000000E+00
      0.00000000000000E+00   0.00000000000000E+00  -1.17006265660373E-14   3.28095980542747E-16  -1.13725305854945E-14
      2.00124886830830E-28
      1.85000000000000E-01
      9.25000000000000E-01   9.25000000000000E-01   0.00000000000000E+00   0.00000000000000E+00   1.17443599681885E-14
     -2.48893813813115E-20   1.17443350788072E-14  -7.79016121367593E-30   0.00000000000000E+00   0.00000000000000E+00
      0.00000000000000E+00   0.00000000000000E+00  -1.21521945050243E-14   4.07859385056532E-16  -1.17443351199678E-14
      2.78316815534559E-28
      1.87500000000000E-01
      9.37500000000000E-01   9.37500000000000E-01   0.00000000000000E+00   0.00000000000000E+00   1.18446416570078E-14
     -1.96916834594755E-20   1.18446219653243E-14  -7.90144923101416E-29   0.00000000000000E+00   0.00000000000000E+00
      0.00000000000000E+00   0.00000000000000E+00  -1.21563450542988E-14   3.11722982052330E-16  -1.18446220722465E-14
      2.78316815534559E-28
      1.97500000000000E-01
      9.87500000000000E-01   9.87500000000000E-01   0.00000000000000E+00   0.00000000000000E+00   1.23044207101715E-14
     -1.78763568151637E-20   1.23044028338147E-14   9.20908343473833E-29   0.00000000000000E+00   0.00000000000000E+00
      0.00000000000000E+00   0.00000000000000E+00  -1.26088462206432E-14   3.04443304401803E-16  -1.23044029162414E-14
      5.75988068867070E-28
      2.00000000000000E-01
      1.00000000000000E+00   1.00000000000000E+00   0.00000000000000E+00   0.00000000000000E+00   1.24322745615814E-14
     -8.39293965206070E-21   1.24322661686418E-14   2.47192460250726E-29   0.00000000000000E+00   0.00000000000000E+00
      0.00000000000000E+00   0.00000000000000E+00  -1.26245006833998E-14   1.92234323103755E-16  -1.24322663602960E-14
      2.90703655725248E-28
      2.10000000000000E-01
      1.05000000000000E+00   1.05000000000000E+00   0.00000000000000E+00   0.00000000000000E+00   1.29412860152090E-14
      4.97936835717433E-20   1.29413358088926E-14   2.87050505590885E-29   0.00000000000000E+00   0.00000000000000E+00
      0.00000000000000E+00   0.00000000000000E+00  -1.30722205846988E-14   1.30884845153557E-16  -1.29413357395452E-14
      3.77411537060076E-28
      2.12500000000000E-01
      1.06250000000000E+00   1.06250000000000E+00   0.00000000000000E+00   0.00000000000000E+00   1.30595598644813E-14
      3.46550781931490E-21   1.30595633299891E-14   6.18192839790231E-29   0.00000000000000E+00   0.00000000000000E+00
      0.00000000000000E+00   0.00000000000000E+00  -1.35264338668883E-14   4.66870441115350E-16  -1.30595634257730E-14
      2.92252010749085E-28
      2.22500000000000E-01
      1.11250000000000E+00   1.11250000000000E+00   0.00000000000000E+00   0.00000000000000E+00   1.34775014695372E-14
     -2.43610396247033E-20   1.34774771084976E-14   9.20787378237596E-29   0.00000000000000E+00   0.00000000000000E+00
      0.00000000000000E+00   0.00000000000000E+00  -1.35240834111953E-14   4.66060624637406E-17  -1.34774773487315E-14
      4.29281430358589E-28
      2.25000000000000E-01
      1.12500000000000E+00   1.12500000000000E+00   0.00000000000000E+00   0.00000000000000E+00   1.35742846905432E-14
      1.00043286326754E-20   1.35742946948718E-14   4.56462318941089E-29   0.00000000000000E+00   0.00000000000000E+00
      0.00000000000000E+00   0.00000000000000E+00  -1.35502676582671E-14  -2.40271822649625E-17  -1.35742948405321E-14
      2.67865419123664E-28
      2.35000000000000E-01
      1.17500000000000E+00   1.17500000000000E+00   0.00000000000000E+00   0.00000000000000E+00   1.39705126166231E-14
      1.50063351941279E-20   1.39705276229583E-14  -1.70560983094458E-30   0.00000000000000E+00   0.00000000000000E+00
      0.00000000000000E+00   0.00000000000000E+00  -1.40021256917300E-14   3.15979867344237E-17  -1.39705277049956E-14
      5.80246045182620E-28
      2.37500000000000E-01
      1.18750000000000E+00   1.18750000000000E+00   0.00000000000000E+00   0.00000000000000E+00   1.40803425157654E-14
      3.37328636553229E-20   1.40803762486291E-14  -1.70258570003865E-29   0.00000000000000E+00   0.00000000000000E+00
      0.00000000000000E+00   0.00000000000000E+00  -1.40033385332569E-14  -7.70376755089081E-17  -1.40803762087658E-14
      4.31216874138384E-28
      2.47500000000000E-01
      1.23750000000000E+00   1.23750000000000E+00   0.00000000000000E+00   0.00000000000000E+00   1.45780118337897E-14
      1.21844911447632E-21   1.45780130522388E-14   5.11138605720305E-29   0.00000000000000E+00   0.00000000000000E+00
      0.00000000000000E+00   0.00000000000000E+00  -1.44701530868777E-14  -1.07859748818896E-16  -1.45780128356966E-14
      3.38315572708212E-28
      2.50000000000000E-01
      1.25000000000000E+00   1.25000000000000E+00   0.00000000000000E+00   0.00000000000000E+00   1.47132018675232E-14
      3.17482032073810E-20   1.47132336157264E-14   6.63978181706012E-29   0.00000000000000E+00   0.00000000000000E+00
      0.00000000000000E+00   0.00000000000000E+00  -1.44794696456906E-14  -2.33764058862288E-16  -1.47132337045528E-14
      3.63089253089591E-28
      2.60000000000000E-01
      1.30000000000000E+00   1.30000000000000E+00   0.00000000000000E+00   0.00000000000000E+00   1.52505195026616E-14
      1.55434539972570E-20   1.52505350461156E-14  -5.33456691806069E-29   0.00000000000000E+00   0.00000000000000E+00
      0.00000000000000E+00   0.00000000000000E+00  -1.57990529245524E-14   5.48517846548068E-16  -1.52505350780043E-14
      4.31216874138384E-28
      2.62500000000000E-01
      1.31250000000000E+00   1.31250000000000E+00   0.00000000000000E+00   0.00000000000000E+00   1.53761935240153E-14
      1.31677729336536E-20   1.53762066917882E-14   1.10368681542825E-28   0.00000000000000E+00   0.00000000000000E+00
      0.00000000000000E+00   0.00000000000000E+00  -1.58031648090795E-14   4.26957991487995E-16  -1.53762068175915E-14
      5.49278944705896E-28
      2.72500000000000E-01
      1.36250000000000E+00   1.36250000000000E+00   0.00000000000000E+00   0.00000000000000E+00   1.58317857567111E-14
     -3.26772437174893E-21   1.58317824889867E-14   7.55246452446983E-29   0.00000000000000E+00   0.00000000000000E+00
      0.00000000000000E+00   0.00000000000000E+00  -1.62705117921130E-14   4.38729155736082E-16  -1.58317826363769E-14
      4.62183974615109E-28
      2.75000000000000E-01
      1.37500000000000E+00   1.37500000000000E+00   0.00000000000000E+00   0.00000000000000E+00   1.59371887634341E-14
      2.21336622139073E-20   1.59372108970964E-14   3.50799185087891E-31   0.00000000000000E+00   0.00000000000000E+00
      0.00000000000000E+00   0.00000000000000E+00  -1.62656958140584E-14   3.28484738743301E-16  -1.59372110753151E-14
      3.75863182036240E-28
      2.85000000000000E-01
      1.42500000000000E+00   1.42500000000000E+00   0.00000000000000E+00   0.00000000000000E+00   1.63642315206278E-14
      2.10017374738466E-20   1.63642525223652E-14  -5.88556356912116E-29   0.00000000000000E+00   0.00000000000000E+00
      0.00000000000000E+00   0.00000000000000E+00  -1.62915008415934E-14  -7.27517233194976E-17  -1.63642525649129E-14
      2.88768211945453E-28
      2.87500000000000E-01
      1.43750000000000E+00   1.43750000000000E+00   0.00000000000000E+00   0.00000000000000E+00   1.64787225509036E-14
     -4.01203298319698E-20   1.64786824305738E-14  -3.51524976505315E-29   0.00000000000000E+00   0.00000000000000E+00
      0.00000000000000E+00   0.00000000000000E+00  -1.63037306101616E-14  -1.74951873012655E-16  -1.64786824831743E-14
      4.37410294233729E-28
      2.97500000000000E-01
      1.48750000000000E+00   1.48750000000000E+00   0.00000000000000E+00   0.00000000000000E+00   1.69818860299856E-14
      1.37446250458784E-20   1.69818997746107E-14   1.99955535500098E-29   0.00000000000000E+00   0.00000000000000E+00
      0.00000000000000E+00   0.00000000000000E+00  -1.67657354440104E-14  -2.16164357932931E-16  -1.69818998019433E-14
      5.11731335377867E-28
      3.00000000000000E-01
      1.50000000000000E+00   1.50000000000000E+00   0.00000000000000E+00   0.00000000000000E+00   1.71170820861166E-14
      2.55448931217696E-21   1.71170846406059E-14  -1.06370780485185E-28   0.00000000000000E+00   0.00000000000000E+00
      0.00000000000000E+00   0.00000000000000E+00  -1.67728590413280E-14  -3.44225948583346E-16  -1.71170849899114E-14
      4.37410294233729E-28
      3.10000000000000E-01
      1.55000000000000E+00   1.55000000000000E+00   0.00000000000000E+00   0.00000000000000E+00   1.76554286759530E-14
     -2.34313729983483E-20   1.76554052445800E-14   2.98844616124012E-29   0.00000000000000E+00   0.00000000000000E+00
      0.00000000000000E+00   0.00000000000000E+00  -1.76788748037713E-14   2.34695835266488E-17  -1.76554052202447E-14
      6.03471370540163E-28
      3.12500000000000E-01
      1.56250000000000E+00   1.56250000000000E+00   0.00000000000000E+00   0.00000000000000E+00   1.77821092034995E-14
     -3.47617231517368E-20   1.77820744417764E-14  -6.19342009534484E-29   0.00000000000000E+00   0.00000000000000E+00
      0.00000000000000E+00   0.00000000000000E+00  -1.76862593806414E-14  -9.58150221815719E-17  -1.77820744028230E-14
      5.03989560258686E-28
      3.22500000000000E-01
      1.61250000000000E+00   1.61250000000000E+00   0.00000000000000E+00   0.00000000000000E+00   1.82338766577965E-14
      6.12566302185261E-21   1.82338827834596E-14  -3.11787896401393E-29   0.00000000000000E+00   0.00000000000000E+00
      0.00000000000000E+00   0.00000000000000E+00  -1.81406446368013E-14  -9.32381130866244E-17  -1.82338827498879E-14
      6.39857713600314E-28
      3.25000000000000E-01
      1.62500000000000E+00   1.62500000000000E+00   0.00000000000000E+00   0.00000000000000E+00   1.83345113968652E-14
      5.89147714969937E-22   1.83345119860129E-14   4.55797010141784E-29   0.00000000000000E+00   0.00000000000000E+00
      0.00000000000000E+00   0.00000000000000E+00  -1.81478032681187E-14  -1.86708707186824E-16  -1.83345119753055E-14
      5.03602471502727E-28
      3.35000000000000E-01
      1.67500000000000E+00   1.67500000000000E+00   0.00000000000000E+00   0.00000000000000E+00   1.87160846856336E-14
      1.68394335727609E-20   1.87161015250672E-14  -1.00086636462663E-28   0.00000000000000E+00   0.00000000000000E+00
      0.00000000000000E+00   0.00000000000000E+00  -1.81725429999016E-14  -5.43558549054552E-16  -1.87161015489561E-14
      4.14184968876186E-28
      3.37500000000000E-01
      1.68750000000000E+00   1.68750000000000E+00   0.00000000000000E+00   0.00000000000000E+00   1.88119358761440E-14
      1.16539933801084E-20   1.88119475301374E-14   4.67530638056793E-29   0.00000000000000E+00   0.00000000000000E+00
      0.00000000000000E+00   0.00000000000000E+00  -1.85999186697487E-14  -2.12028614786144E-16  -1.88119472845348E-14
      4.13797880120227E-28
      3.47500000000000E-01
      1.73750000000000E+00   1.73750000000000E+00   0.00000000000000E+00   0.00000000000000E+00   1.92262825403261E-14
     -3.78629704634382E-20   1.92262446773556E-14   1.37428604889087E-28   0.00000000000000E+00   0.00000000000000E+00
      0.00000000000000E+00   0.00000000000000E+00  -1.86348194231037E-14  -5.91425306798907E-16  -1.92262447299026E-14
      3.95217619834193E-28
      3.50000000000000E-01
      1.75000000000000E+00   1.75000000000000E+00   0.00000000000000E+00   0.00000000000000E+00   1.93384058709693E-14
      5.54247303705289E-21   1.93384114134423E-14  -2.08665032509177E-29   0.00000000000000E+00   0.00000000000000E+00
      0.00000000000000E+00   0.00000000000000E+00  -1.86380737326411E-14  -7.00337783720220E-16  -1.93384115163613E-14
      3.73540649500486E-28
      3.60000000000000E-01
      1.80000000000000E+00   1.80000000000000E+00   0.00000000000000E+00   0.00000000000000E+00   1.98034782412493E-14
      2.34755102886025E-20   1.98035017167595E-14   8.78751958645168E-29   0.00000000000000E+00   0.00000000000000E+00
      0.00000000000000E+00   0.00000000000000E+00  -1.95254794275322E-14  -2.78022274104747E-16  -1.98035017016370E-14
      4.07604460024882E-28
      3.62500000000000E-01
      1.81250000000000E+00   1.81250000000000E+00   0.00000000000000E+00   0.00000000000000E+00   1.99178240371702E-14
     -1.07987395559870E-20   1.99178132384307E-14  -4.49385852621213E-30   0.00000000000000E+00   0.00000000000000E+00
      0.00000000000000E+00   0.00000000000000E+00  -1.95318326923648E-14  -3.85980495474399E-16  -1.99178131878392E-14
      3.58057099262124E-28
      3.72500000000000E-01
      1.86250000000000E+00   1.86250000000000E+00   0.00000000000000E+00   0.00000000000000E+00   2.03328064815945E-14
     -6.43381405452850E-21   2.03328000477805E-14  -1.99471674555149E-29   0.00000000000000E+00   0.00000000000000E+00
      0.00000000000000E+00   0.00000000000000E+00  -2.04333265001230E-14   1.00526495246756E-16  -2.03328000048762E-14
      4.57151820787641E-28
      3.75000000000000E-01
      1.87500000000000E+00   1.87500000000000E+00   0.00000000000000E+00   0.00000000000000E+00   2.04247608116352E-14
     -5.63143622262650E-20   2.04247044972730E-14   4.18781647853200E-29   0.00000000000000E+00   0.00000000000000E+00
      0.00000000000000E+00   0.00000000000000E+00  -2.04356632310825E-14   1.09585211216033E-17  -2.04247047099609E-14
      5.07086270306359E-28
      3.85000000000000E-01
      1.92500000000000E+00   1.92500000000000E+00   0.00000000000000E+00   0.00000000000000E+00   2.07509457782219E-14
      2.25878681601952E-20   2.07509683660900E-14  -5.56561051927375E-29   0.00000000000000E+00   0.00000000000000E+00
      0.00000000000000E+00   0.00000000000000E+00  -2.04745161690558E-14  -2.76452115403082E-16  -2.07509682844589E-14
      2.29543632283718E-28
      3.87500000000000E-01
      1.93750000000000E+00   1.93750000000000E+00   0.00000000000000E+00   0.00000000000000E+00   2.08271774815327E-14
      6.59953507455458E-20   2.08272434768834E-14   4.83135153531392E-29   0.00000000000000E+00   0.00000000000000E+00
      0.00000000000000E+00   0.00000000000000E+00  -2.04741852360906E-14  -3.53058420373046E-16  -2.08272436564637E-14
      3.66185963137264E-28
      3.97500000000000E-01
      1.98750000000000E+00   1.98750000000000E+00   0.00000000000000E+00   0.00000000000000E+00   2.11432817747573E-14
      2.12187498187940E-20   2.11433029935071E-14  -2.33462905937804E-30   0.00000000000000E+00   0.00000000000000E+00
      0.00000000000000E+00   0.00000000000000E+00  -2.09098986943625E-14  -2.33404167208427E-16  -2.11433028615709E-14
      3.34831773904580E-28
      4.00000000000000E-01
      2.00000000000000E+00   2.00000000000000E+00   0.00000000000000E+00   0.00000000000000E+00   2.12292822704962E-14
      1.25942117719895E-20   2.12292948647080E-14  -9.72318568874645E-29   0.00000000000000E+00   0.00000000000000E+00
      0.00000000000000E+00   0.00000000000000E+00  -2.09163100385485E-14  -3.12984734903749E-16  -2.12292947734522E-14
      5.08634625330195E-28
      4.10000000000000E-01
      2.05000000000000E+00   2.05000000000000E+00   0.00000000000000E+00   0.00000000000000E+00   2.16074335848830E-14
      2.17672303544459E-20   2.16074553521134E-14   5.49242655135024E-29   0.00000000000000E+00   0.00000000000000E+00
      0.00000000000000E+00   0.00000000000000E+00  -2.09334734991268E-14  -6.73981904025107E-16  -2.16074554031519E-14
      4.96247785139505E-28
      4.12500000000000E-01
      2.06250000000000E+00   2.06250000000000E+00   0.00000000000000E+00   0.00000000000000E+00   2.17085906476738E-14
      2.37593699104183E-20   2.17086144070437E-14  -4.33841819764732E-29   0.00000000000000E+00   0.00000000000000E+00
      0.00000000000000E+00   0.00000000000000E+00  -2.13775780982521E-14  -3.31036344472559E-16  -2.17086144427247E-14
      5.58181986092954E-28
      4.22500000000000E-01
      2.11250000000000E+00   2.11250000000000E+00   0.00000000000000E+00   0.00000000000000E+00   2.21078717848106E-14
     -1.36393098077911E-20   2.21078581455008E-14  -4.07229467792547E-29   0.00000000000000E+00   0.00000000000000E+00
      0.00000000000000E+00   0.00000000000000E+00  -2.27020676348978E-14   5.94209441843288E-16  -2.21078581930546E-14
      2.97671253332511E-28
      4.25000000000000E-01
      2.12500000000000E+00   2.12500000000000E+00   0.00000000000000E+00   0.00000000000000E+00   2.22007370703281E-14
     -5.87043793089805E-21   2.22007311998902E-14   8.57038698740590E-30   0.00000000000000E+00   0.00000000000000E+00
      0.00000000000000E+00   0.00000000000000E+00  -2.27007892730166E-14   5.00058045829531E-16  -2.22007312271871E-14
      5.08634625330195E-28
      4.35000000000000E-01
      2.17500000000000E+00   2.17500000000000E+00   0.00000000000000E+00   0.00000000000000E+00   2.25314280147346E-14
     -2.41488990829202E-21   2.25314255998447E-14  -7.00025822104699E-29   0.00000000000000E+00   0.00000000000000E+00
      0.00000000000000E+00   0.00000000000000E+00  -2.31380929206558E-14   6.06667326495342E-16  -2.25314255941604E-14
      3.47218614095270E-28
      4.37500000000000E-01
      2.18750000000000E+00   2.18750000000000E+00   0.00000000000000E+00   0.00000000000000E+00   2.26046047052441E-14
      1.53241927525845E-20   2.26046200294369E-14   5.66117305590114E-30   0.00000000000000E+00   0.00000000000000E+00
      0.00000000000000E+00   0.00000000000000E+00  -2.31425985424662E-14   5.37978589868795E-16  -2.26046199525974E-14
      2.48123892569753E-28
      4.47500000000000E-01