DF-ISE text

Info {
  version   = 1.0
  type      = xyplot
  datasets  = [
    "frequency"
    "v(ntype)" "v(ptype)" "a(ntype,ntype)" "c(ntype,ntype)" "a(ntype,ptype)"
    "c(ntype,ptype)" "a(ptype,ntype)" "c(ptype,ntype)" "a(ptype,ptype)" "c(ptype,ptype)" ]
  functions = [
    Frequency
    Voltage Voltage Admittance Capacitance Admittance
    Capacitance Admittance Capacitance Admittance Capacitance ]
}

Data {
