DF-ISE text

Info {
  version   = 1.0
  type      = xyplot
  datasets  = [
    "time" "v(g)" "v(b)" ]
  functions = [
    Time Voltage Voltage ]
}

Data {
      0.00000000000000E+00   0.00000000000000E+00   0.00000000000000E+00
      1.00000000000000E-02   5.00000000000000E-02   0.00000000000000E+00
      1.25000000000000E-02   6.25000000000000E-02   0.00000000000000E+00
      2.25000000000000E-02   1.12500000000000E-01   0.00000000000000E+00
      2.50000000000000E-02   1.25000000000000E-01   0.00000000000000E+00
      3.50000000000000E-02   1.75000000000000E-01   0.00000000000000E+00
      3.75000000000000E-02   1.87500000000000E-01   0.00000000000000E+00
      4.75000000000000E-02   2.37500000000000E-01   0.00000000000000E+00
      5.00000000000000E-02   2.50000000000000E-01   0.00000000000000E+00
      6.00000000000000E-02   3.00000000000000E-01   0.00000000000000E+00
      6.25000000000000E-02   3.12500000000000E-01   0.00000000000000E+00
      7.25000000000000E-02   3.62500000000000E-01   0.00000000000000E+00
      7.50000000000000E-02   3.75000000000000E-01   0.00000000000000E+00
      8.50000000000000E-02   4.25000000000000E-01   0.00000000000000E+00
      8.75000000000000E-02   4.37500000000000E-01   0.00000000000000E+00
      9.75000000000000E-02   4.87500000000000E-01   0.00000000000000E+00
      1.00000000000000E-01   5.00000000000000E-01   0.00000000000000E+00
      1.10000000000000E-01   5.50000000000000E-01   0.00000000000000E+00
      1.12500000000000E-01   5.62500000000000E-01   0.00000000000000E+00
      1.22500000000000E-01   6.12500000000000E-01   0.00000000000000E+00
      1.25000000000000E-01   6.25000000000000E-01   0.00000000000000E+00
      1.35000000000000E-01   6.75000000000000E-01   0.00000000000000E+00
      1.37500000000000E-01   6.87500000000000E-01   0.00000000000000E+00
      1.47500000000000E-01   7.37500000000000E-01   0.00000000000000E+00
      1.50000000000000E-01   7.50000000000000E-01   0.00000000000000E+00
      1.60000000000000E-01   8.00000000000000E-01   0.00000000000000E+00
      1.62500000000000E-01   8.12500000000000E-01   0.00000000000000E+00
      1.72500000000000E-01   8.62500000000000E-01   0.00000000000000E+00
      1.75000000000000E-01   8.75000000000000E-01   0.00000000000000E+00
      1.85000000000000E-01   9.25000000000000E-01   0.00000000000000E+00
      1.87500000000000E-01   9.37500000000000E-01   0.00000000000000E+00
      1.97500000000000E-01   9.87500000000000E-01   0.00000000000000E+00
      2.00000000000000E-01   1.00000000000000E+00   0.00000000000000E+00
      2.10000000000000E-01   1.05000000000000E+00   0.00000000000000E+00
      2.12500000000000E-01   1.06250000000000E+00   0.00000000000000E+00
      2.22500000000000E-01   1.11250000000000E+00   0.00000000000000E+00
      2.25000000000000E-01   1.12500000000000E+00   0.00000000000000E+00
      2.35000000000000E-01   1.17500000000000E+00   0.00000000000000E+00
      2.37500000000000E-01   1.18750000000000E+00   0.00000000000000E+00
      2.47500000000000E-01   1.23750000000000E+00   0.00000000000000E+00
      2.50000000000000E-01   1.25000000000000E+00   0.00000000000000E+00
      2.60000000000000E-01   1.30000000000000E+00   0.00000000000000E+00
      2.62500000000000E-01   1.31250000000000E+00   0.00000000000000E+00
      2.72500000000000E-01   1.36250000000000E+00   0.00000000000000E+00
      2.75000000000000E-01   1.37500000000000E+00   0.00000000000000E+00
      2.85000000000000E-01   1.42500000000000E+00   0.00000000000000E+00
      2.87500000000000E-01   1.43750000000000E+00   0.00000000000000E+00
      2.97500000000000E-01   1.48750000000000E+00   0.00000000000000E+00
      3.00000000000000E-01   1.50000000000000E+00   0.00000000000000E+00
      3.10000000000000E-01   1.55000000000000E+00   0.00000000000000E+00
      3.12500000000000E-01   1.56250000000000E+00   0.00000000000000E+00
      3.22500000000000E-01   1.61250000000000E+00   0.00000000000000E+00
      3.25000000000000E-01   1.62500000000000E+00   0.00000000000000E+00
      3.35000000000000E-01   1.67500000000000E+00   0.00000000000000E+00
      3.37500000000000E-01   1.68750000000000E+00   0.00000000000000E+00
      3.47500000000000E-01   1.73750000000000E+00   0.00000000000000E+00
      3.50000000000000E-01   1.75000000000000E+00   0.00000000000000E+00
      3.60000000000000E-01   1.80000000000000E+00   0.00000000000000E+00
      3.62500000000000E-01   1.81250000000000E+00   0.00000000000000E+00
      3.72500000000000E-01   1.86250000000000E+00   0.00000000000000E+00
      3.75000000000000E-01   1.87500000000000E+00   0.00000000000000E+00
      3.85000000000000E-01   1.92500000000000E+00   0.00000000000000E+00
      3.87500000000000E-01   1.93750000000000E+00   0.00000000000000E+00
      3.97500000000000E-01   1.98750000000000E+00   0.00000000000000E+00
      4.00000000000000E-01   2.00000000000000E+00   0.00000000000000E+00
      4.10000000000000E-01   2.05000000000000E+00   0.00000000000000E+00
      4.12500000000000E-01   2.06250000000000E+00   0.00000000000000E+00
      4.22500000000000E-01   2.11250000000000E+00   0.00000000000000E+00
      4.25000000000000E-01   2.12500000000000E+00   0.00000000000000E+00
      4.35000000000000E-01   2.17500000000000E+00   0.00000000000000E+00
      4.37500000000000E-01   2.18750000000000E+00   0.00000000000000E+00
      4.47500000000000E-01   2.23750000000000E+00   0.00000000000000E+00
      4.50000000000000E-01   2.25000000000000E+00   0.00000000000000E+00
      4.60000000000000E-01   2.30000000000000E+00   0.00000000000000E+00
      4.62500000000000E-01   2.31250000000000E+00   0.00000000000000E+00
      4.72500000000000E-01   2.36250000000000E+00   0.00000000000000E+00
      4.75000000000000E-01   2.37500000000000E+00   0.00000000000000E+00
      4.85000000000000E-01   2.42500000000000E+00   0.00000000000000E+00
      4.87500000000000E-01   2.43750000000000E+00   0.00000000000000E+00
      4.97500000000000E-01   2.48750000000000E+00   0.00000000000000E+00
      5.00000000000000E-01   2.50000000000000E+00   0.00000000000000E+00
      5.10000000000000E-01   2.55000000000000E+00   0.00000000000000E+00
      5.12500000000000E-01   2.56250000000000E+00   0.00000000000000E+00
      5.22500000000000E-01   2.61250000000000E+00   0.00000000000000E+00
      5.25000000000000E-01   2.62500000000000E+00   0.00000000000000E+00
      5.35000000000000E-01   2.67500000000000E+00   0.00000000000000E+00
      5.37500000000000E-01   2.68750000000000E+00   0.00000000000000E+00
      5.47500000000000E-01   2.73750000000000E+00   0.00000000000000E+00
      5.50000000000000E-01   2.75000000000000E+00   0.00000000000000E+00
      5.60000000000000E-01   2.80000000000000E+00   0.00000000000000E+00
      5.62500000000000E-01   2.81250000000000E+00   0.00000000000000E+00
      5.72500000000000E-01   2.86250000000000E+00   0.00000000000000E+00
      5.75000000000000E-01   2.87500000000000E+00   0.00000000000000E+00
      5.85000000000000E-01   2.92500000000000E+00   0.00000000000000E+00
      5.87500000000000E-01   2.93750000000000E+00   0.00000000000000E+00
      5.97500000000000E-01   2.98750000000000E+00   0.00000000000000E+00
      6.00000000000000E-01   3.00000000000000E+00   0.00000000000000E+00
      6.10000000000000E-01   3.05000000000000E+00   0.00000000000000E+00
      6.12500000000000E-01   3.06250000000000E+00   0.00000000000000E+00
      6.22500000000000E-01   3.11250000000000E+00   0.00000000000000E+00
      6.25000000000000E-01   3.12500000000000E+00   0.00000000000000E+00
      6.35000000000000E-01   3.17500000000000E+00   0.00000000000000E+00
      6.37500000000000E-01   3.18750000000000E+00   0.00000000000000E+00
      6.47500000000000E-01   3.23750000000000E+00   0.00000000000000E+00
      6.50000000000000E-01   3.25000000000000E+00   0.00000000000000E+00
      6.60000000000000E-01   3.30000000000000E+00   0.00000000000000E+00
      6.62500000000000E-01   3.31250000000000E+00   0.00000000000000E+00
      6.72500000000000E-01   3.36250000000000E+00   0.00000000000000E+00
      6.75000000000000E-01   3.37500000000000E+00   0.00000000000000E+00
      6.85000000000000E-01   3.42500000000000E+00   0.00000000000000E+00
      6.87500000000000E-01   3.43750000000000E+00   0.00000000000000E+00
      6.97500000000000E-01   3.48750000000000E+00   0.00000000000000E+00
      7.00000000000000E-01   3.50000000000000E+00   0.00000000000000E+00
      7.10000000000000E-01   3.55000000000000E+00   0.00000000000000E+00
      7.12499999999999E-01   3.56250000000000E+00   0.00000000000000E+00
      7.22499999999999E-01   3.61250000000000E+00   0.00000000000000E+00
      7.24999999999999E-01   3.62500000000000E+00   0.00000000000000E+00
      7.34999999999999E-01   3.67500000000000E+00   0.00000000000000E+00
      7.37499999999999E-01   3.68750000000000E+00   0.00000000000000E+00
      7.47499999999999E-01   3.73750000000000E+00   0.00000000000000E+00
      7.49999999999999E-01   3.75000000000000E+00   0.00000000000000E+00
      7.59999999999999E-01   3.80000000000000E+00   0.00000000000000E+00
      7.62499999999999E-01   3.81250000000000E+00   0.00000000000000E+00
      7.72499999999999E-01   3.86250000000000E+00   0.00000000000000E+00
      7.74999999999999E-01   3.87500000000000E+00   0.00000000000000E+00
      7.84999999999999E-01   3.92500000000000E+00   0.00000000000000E+00
      7.87499999999999E-01   3.93750000000000E+00   0.00000000000000E+00
      7.97499999999999E-01   3.98750000000000E+00   0.00000000000000E+00
      7.99999999999999E-01   4.00000000000000E+00   0.00000000000000E+00
      8.09999999999999E-01   4.05000000000000E+00   0.00000000000000E+00
      8.12499999999999E-01   4.06250000000000E+00   0.00000000000000E+00
      8.22499999999999E-01   4.11250000000000E+00   0.00000000000000E+00
      8.24999999999999E-01   4.12500000000000E+00   0.00000000000000E+00
      8.34999999999999E-01   4.17500000000000E+00   0.00000000000000E+00
      8.37499999999999E-01   4.18749999999999E+00   0.00000000000000E+00
      8.47499999999999E-01   4.23750000000000E+00   0.00000000000000E+00
      8.49999999999999E-01   4.24999999999999E+00   0.00000000000000E+00
      8.59999999999999E-01   4.30000000000000E+00   0.00000000000000E+00
      8.62499999999999E-01   4.31249999999999E+00   0.00000000000000E+00
      8.72499999999999E-01   4.36249999999999E+00   0.00000000000000E+00
      8.74999999999999E-01   4.37499999999999E+00   0.00000000000000E+00
      8.84999999999999E-01   4.42499999999999E+00   0.00000000000000E+00
      8.87499999999999E-01   4.43749999999999E+00   0.00000000000000E+00
      8.97499999999999E-01   4.48749999999999E+00   0.00000000000000E+00
      8.99999999999999E-01   4.49999999999999E+00   0.00000000000000E+00
      9.09999999999999E-01   4.54999999999999E+00   0.00000000000000E+00
      9.12499999999999E-01   4.56249999999999E+00   0.00000000000000E+00
      9.22499999999999E-01   4.61249999999999E+00   0.00000000000000E+00
      9.24999999999999E-01   4.62499999999999E+00   0.00000000000000E+00
      9.34999999999999E-01   4.67499999999999E+00   0.00000000000000E+00
      9.37499999999999E-01   4.68749999999999E+00   0.00000000000000E+00
      9.47499999999999E-01   4.73749999999999E+00   0.00000000000000E+00
      9.49999999999999E-01   4.74999999999999E+00   0.00000000000000E+00
      9.59999999999999E-01   4.79999999999999E+00   0.00000000000000E+00
      9.62499999999999E-01   4.81249999999999E+00   0.00000000000000E+00
      9.72499999999999E-01   4.86249999999999E+00   0.00000000000000E+00
      9.74999999999999E-01   4.87499999999999E+00   0.00000000000000E+00
      9.84999999999999E-01   4.92499999999999E+00   0.00000000000000E+00
      9.87499999999998E-01   4.93749999999999E+00   0.00000000000000E+00
      9.97499999999998E-01   4.98749999999999E+00   0.00000000000000E+00
      1.00000000000000E+00   5.00000000000000E+00   0.00000000000000E+00
}
