DF-ISE text

Info {
  version   = 1.0
  type      = xyplot
  datasets  = [
    "frequency"
    "v(g)" "v(b)" "a(g,g)" "c(g,g)" "a(g,b)"
    "c(g,b)" "a(b,g)" "c(b,g)" "a(b,b)" "c(b,b)" ]
  functions = [
    Frequency
    Voltage Voltage Admittance Capacitance Admittance
    Capacitance Admittance Capacitance Admittance Capacitance ]
}

Data {
      1.00000000000000E+00
      2.00000000000000E+01   0.00000000000000E+00  -3.21405841119451E+09   4.34727051004121E-16  -6.86416559511098E-04
     -4.34727050749467E-16  -6.86416559514404E-04  -4.34727050742939E-16  -3.21405841119451E+09   4.34727050759031E-16
      1.80472176682717E+00
      2.00000000000000E+01   0.00000000000000E+00  -3.21405841119451E+09   4.34727051003791E-16  -6.86416559511098E-04
     -4.34727050749469E-16  -6.86416559514404E-04  -4.34727050742941E-16  -3.21405841119451E+09   4.34727050759051E-16
      3.25702065565978E+00
      2.00000000000000E+01   0.00000000000000E+00  -3.21405841119451E+09   4.34727051009126E-16  -6.86416559511098E-04
     -4.34727050749468E-16  -6.86416559514404E-04  -4.34727050742943E-16  -3.21405841119451E+09   4.34727050758649E-16
      5.87801607227491E+00
      2.00000000000000E+01   0.00000000000000E+00  -3.21405841119451E+09   4.34727051013564E-16  -6.86416559511098E-04
     -4.34727050749471E-16  -6.86416559514404E-04  -4.34727050742944E-16  -3.21405841119451E+09   4.34727050758137E-16
      1.06081835513945E+01
      2.00000000000000E+01   0.00000000000000E+00  -3.21405841119451E+09   4.34727051019532E-16  -6.86416559511098E-04
     -4.34727050749463E-16  -6.86416559514404E-04  -4.34727050742944E-16  -3.21405841119451E+09   4.34727050758943E-16
      1.91448197616996E+01
      2.00000000000000E+01   0.00000000000000E+00  -3.21405841119451E+09   4.34727050997117E-16  -6.86416559511098E-04
     -4.34727050749476E-16  -6.86416559514404E-04  -4.34727050742942E-16  -3.21405841119451E+09   4.34727050757786E-16
      3.45510729459222E+01
      2.00000000000000E+01   0.00000000000000E+00  -3.21405841119451E+09   4.34727050993427E-16  -6.86416559511098E-04
     -4.34727050749475E-16  -6.86416559514404E-04  -4.34727050742937E-16  -3.21405841119451E+09   4.34727050757439E-16
      6.23550734127392E+01
      2.00000000000000E+01   0.00000000000000E+00  -3.21405841119451E+09   4.34727051002288E-16  -6.86416559511097E-04
     -4.34727050749467E-16  -6.86416559514404E-04  -4.34727050742940E-16  -3.21405841119451E+09   4.34727050758250E-16
      1.12533558260076E+02
      2.00000000000000E+01   0.00000000000000E+00  -3.21405841119451E+09   4.34727051012400E-16  -6.86416559511099E-04
     -4.34727050749469E-16  -6.86416559514404E-04  -4.34727050742943E-16  -3.21405841119451E+09   4.34727050758437E-16
      2.03091762090474E+02
      2.00000000000000E+01   0.00000000000000E+00  -3.21405841119451E+09   4.34727051005571E-16  -6.86416559511098E-04
     -4.34727050749462E-16  -6.86416559514404E-04  -4.34727050742941E-16  -3.21405841119451E+09   4.34727050758635E-16
      3.66524123707963E+02
      2.00000000000000E+01   0.00000000000000E+00  -3.21405841119451E+09   4.34727051004850E-16  -6.86416559511098E-04
     -4.34727050749479E-16  -6.86416559514404E-04  -4.34727050742946E-16  -3.21405841119451E+09   4.34727050759421E-16
      6.61474064123015E+02
      2.00000000000000E+01   0.00000000000000E+00  -3.21405841119451E+09   4.34727051006389E-16  -6.86416559511098E-04
     -4.34727050749468E-16  -6.86416559514404E-04  -4.34727050742945E-16  -3.21405841119451E+09   4.34727050757392E-16
      1.19377664171444E+03
      2.00000000000000E+01   0.00000000000000E+00  -3.21405841119451E+09   4.34727050999491E-16  -6.86416559511096E-04
     -4.34727050749472E-16  -6.86416559514403E-04  -4.34727050742943E-16  -3.21405841119451E+09   4.34727050758280E-16
      2.15443469003188E+03
      2.00000000000000E+01   0.00000000000000E+00  -3.21405841119451E+09   4.34727051018269E-16  -6.86416559511098E-04
     -4.34727050749468E-16  -6.86416559514403E-04  -4.34727050742942E-16  -3.21405841119451E+09   4.34727050758815E-16
      3.88815518030809E+03
      2.00000000000000E+01   0.00000000000000E+00  -3.21405841119451E+09   4.34727051003108E-16  -6.86416559511099E-04
     -4.34727050749454E-16  -6.86416559514406E-04  -4.34727050742942E-16  -3.21405841119451E+09   4.34727050758707E-16
      7.01703828670382E+03
      2.00000000000000E+01   0.00000000000000E+00  -3.21405841119451E+09   4.34727051005951E-16  -6.86416559511101E-04
     -4.34727050749445E-16  -6.86416559514408E-04  -4.34727050742937E-16  -3.21405841119451E+09   4.34727050757354E-16
      1.26638017346740E+04
      2.00000000000000E+01   0.00000000000000E+00  -3.21405841119451E+09   4.34727051003527E-16  -6.86416559511109E-04
     -4.34727050749478E-16  -6.86416559514419E-04  -4.34727050742950E-16  -3.21405841119451E+09   4.34727050759101E-16
      2.28546386413499E+04
      2.00000000000000E+01   0.00000000000000E+00  -3.21405841119451E+09   4.34727051015732E-16  -6.86416559511099E-04
     -4.34727050749467E-16  -6.86416559514404E-04  -4.34727050742951E-16  -3.21405841119451E+09   4.34727050757988E-16
      4.12462638290135E+04
      2.00000000000000E+01   0.00000000000000E+00  -3.21405841119451E+09   4.34727051010808E-16  -6.86416559511191E-04
     -4.34727050749125E-16  -6.86416559514489E-04  -4.34727050742896E-16  -3.21405841119451E+09   4.34727050758828E-16
      7.44380301325169E+04
      2.00000000000000E+01   0.00000000000000E+00  -3.21405841119451E+09   4.34727051014237E-16  -6.86416559510219E-04
     -4.34727050750716E-16  -6.86416559513417E-04  -4.34727050743184E-16  -3.21405841119451E+09   4.34727050757599E-16
      1.34339933259890E+05
      2.00000000000000E+01   0.00000000000000E+00  -3.21405841119451E+09   4.34727051000273E-16  -6.86416559510911E-04
     -4.34727050749633E-16  -6.86416559514167E-04  -4.34727050742961E-16  -3.21405841119451E+09   4.34727050757466E-16
      2.42446201708233E+05
      2.00000000000000E+01   0.00000000000000E+00  -3.21405841119451E+09   4.34727050994410E-16  -6.86416559510892E-04
     -4.34727050748153E-16  -6.86416559514028E-04  -4.34727050742680E-16  -3.21405841119451E+09   4.34727050757585E-16
      4.37547937507419E+05
      2.00000000000000E+01   0.00000000000000E+00  -3.21405841119451E+09   4.34727051006253E-16  -6.86416559511809E-04
     -4.34727050746547E-16  -6.86416559515131E-04  -4.34727050741658E-16  -3.21405841119451E+09   4.34727050758289E-16
      7.89652286849972E+05
      2.00000000000000E+01   0.00000000000000E+00  -3.21405841119451E+09   4.34727051008496E-16  -6.86416559512028E-04
     -4.34727050747245E-16  -6.86416559515403E-04  -4.34727050740694E-16  -3.21405841119451E+09   4.34727050754405E-16
      1.42510267030300E+06
      2.00000000000000E+01   0.00000000000000E+00  -3.21405841119451E+09   4.34727051007587E-16  -6.86416559513390E-04
     -4.34727050741866E-16  -6.86416559516667E-04  -4.34727050735651E-16  -3.21405841119451E+09   4.34727050754030E-16
      2.57191380905934E+06
      2.00000000000000E+01   0.00000000000000E+00  -3.21405841119451E+09   4.34727050960324E-16  -6.86416559518010E-04
     -4.34727050725411E-16  -6.86416559521359E-04  -4.34727050718827E-16  -3.21405841119451E+09   4.34727050734055E-16
      4.64158883361278E+06
      2.00000000000000E+01   0.00000000000000E+00  -3.21405841119451E+09   4.34727050919971E-16  -6.86416559533500E-04
     -4.34727050670593E-16  -6.86416559536832E-04  -4.34727050664387E-16  -3.21405841119451E+09   4.34727050684328E-16
      8.37677640068293E+06
      2.00000000000000E+01   0.00000000000000E+00  -3.21405841119451E+09   4.34727050743555E-16  -6.86416559583211E-04
     -4.34727050494311E-16  -6.86416559586565E-04  -4.34727050487814E-16  -3.21405841119451E+09   4.34727050502180E-16
      1.51177507061567E+07
      2.00000000000000E+01   0.00000000000000E+00  -3.21405841119451E+09   4.34727050178530E-16  -6.86416559745972E-04
     -4.34727049918945E-16  -6.86416559749386E-04  -4.34727049912460E-16  -3.21405841119451E+09   4.34727049929510E-16
      2.72833337648676E+07
      2.00000000000000E+01   0.00000000000000E+00  -3.21405841119451E+09   4.34727048305822E-16  -6.86416560275792E-04
     -4.34727048044231E-16  -6.86416560279156E-04  -4.34727048037763E-16  -3.21405841119451E+09   4.34727048051000E-16
      4.92388263170673E+07
      2.00000000000000E+01   0.00000000000000E+00  -3.21405841119451E+09   4.34727042200244E-16  -6.86416562001639E-04
     -4.34727041938885E-16  -6.86416562005131E-04  -4.34727041932742E-16  -3.21405841119451E+09   4.34727041948308E-16
      8.88623816274339E+07
      2.00000000000000E+01   0.00000000000000E+00  -3.21405841119451E+09   4.34727022307186E-16  -6.86416567623009E-04
     -4.34727022055980E-16  -6.86416567626432E-04  -4.34727022048830E-16  -3.21405841119451E+09   4.34727022066715E-16
      1.60371874375133E+08
      2.00000000000000E+01   0.00000000000000E+00  -3.21405841119451E+09   4.34726957549784E-16  -6.86416585930903E-04
     -4.34726957296477E-16  -6.86416585934289E-04  -4.34726957289804E-16  -3.21405841119451E+09   4.34726957307129E-16
      2.89426612471675E+08
      2.00000000000000E+01   0.00000000000000E+00  -3.21405841119451E+09   4.34726746701288E-16  -6.86416645546965E-04
     -4.34726746447017E-16  -6.86416645550034E-04  -4.34726746440196E-16  -3.21405841119451E+09   4.34726746455628E-16
      5.22334507426686E+08
      2.00000000000000E+01   0.00000000000000E+00  -3.21405841119451E+09   4.34726061361411E-16  -6.86416839583215E-04
     -4.34726061100739E-16  -6.86416839586710E-04  -4.34726061094194E-16  -3.21405841119451E+09   4.34726061108787E-16
      9.42668455117888E+08
      2.00000000000000E+01   0.00000000000000E+00  -3.21405841119451E+09   4.34723853426848E-16  -6.86417470109027E-04
     -4.34723853173489E-16  -6.86417470112683E-04  -4.34723853167269E-16  -3.21405841119451E+09   4.34723853183028E-16
      1.70125427985259E+09
      2.00000000000000E+01   0.00000000000000E+00  -3.21405841119451E+09   4.34716969344457E-16  -6.86419508762180E-04
     -4.34716969100371E-16  -6.86419508765415E-04  -4.34716969094049E-16  -3.21405841119451E+09   4.34716969110769E-16
      3.07029062975785E+09
      2.00000000000000E+01   0.00000000000000E+00  -3.21405841119451E+09   4.34697483179947E-16  -6.86426011515093E-04
     -4.34697482933454E-16  -6.86426011518057E-04  -4.34697482927740E-16  -3.21405841119451E+09   4.34697482945528E-16
      5.54102033000949E+09
      2.00000000000000E+01   0.00000000000000E+00  -3.21405841119451E+09   4.34654574037269E-16  -6.86446241214232E-04
     -4.34654573777974E-16  -6.86446241217523E-04  -4.34654573773290E-16  -3.21405841119451E+09   4.34654573790621E-16
      1.00000000000000E+10
      2.00000000000000E+01   0.00000000000000E+00  -3.21405841119451E+09   4.34597168503874E-16  -6.86508458014501E-04
     -4.34597168250595E-16  -6.86508458018343E-04  -4.34597168246705E-16  -3.21405841119451E+09   4.34597168263371E-16
}
