DF-ISE text

Info {
  version   = 1.0
  type      = xyplot
  datasets  = [
    "frequency"
    "v(g)" "v(b)" "a(g,g)" "c(g,g)" "a(g,b)"
    "c(g,b)" "a(b,g)" "c(b,g)" "a(b,b)" "c(b,b)" ]
  functions = [
    Frequency
    Voltage Voltage Admittance Capacitance Admittance
    Capacitance Admittance Capacitance Admittance Capacitance ]
}

Data {
      1.00000000000000E+00
      1.20000000000000E+00   0.00000000000000E+00  -3.21405841119519E+09   5.92483642942951E-14  -1.65072932904381E-06
     -5.92483642955571E-14  -1.65072932931629E-06  -5.92483642937289E-14  -3.21405841119519E+09   5.92483642953619E-14
      1.80472176682717E+00
      1.20000000000000E+00   0.00000000000000E+00  -3.21405841119519E+09   5.92483642943027E-14  -1.65072932904381E-06
     -5.92483642955569E-14  -1.65072932931785E-06  -5.92483642937287E-14  -3.21405841119519E+09   5.92483642953633E-14
      3.25702065565978E+00
      1.20000000000000E+00   0.00000000000000E+00  -3.21405841119519E+09   5.92483642943042E-14  -1.65072932904384E-06
     -5.92483642955567E-14  -1.65072932931645E-06  -5.92483642937283E-14  -3.21405841119519E+09   5.92483642953629E-14
      5.87801607227491E+00
      1.20000000000000E+00   0.00000000000000E+00  -3.21405841119519E+09   5.92483642943009E-14  -1.65072932904397E-06
     -5.92483642955552E-14  -1.65072932931876E-06  -5.92483642937269E-14  -3.21405841119519E+09   5.92483642953619E-14
      1.06081835513945E+01
      1.20000000000000E+00   0.00000000000000E+00  -3.21405841119519E+09   5.92483642942998E-14  -1.65072932904437E-06
     -5.92483642955518E-14  -1.65072932932110E-06  -5.92483642937240E-14  -3.21405841119519E+09   5.92483642953574E-14
      1.91448197616996E+01
      1.20000000000000E+00   0.00000000000000E+00  -3.21405841119519E+09   5.92483642942736E-14  -1.65072932904563E-06
     -5.92483642955381E-14  -1.65072932932800E-06  -5.92483642937103E-14  -3.21405841119519E+09   5.92483642953445E-14
      3.45510729459222E+01
      1.20000000000000E+00   0.00000000000000E+00  -3.21405841119519E+09   5.92483642942442E-14  -1.65072932904969E-06
     -5.92483642954987E-14  -1.65072932932741E-06  -5.92483642936704E-14  -3.21405841119519E+09   5.92483642953054E-14
      6.23550734127392E+01
      1.20000000000000E+00   0.00000000000000E+00  -3.21405841119519E+09   5.92483642941059E-14  -1.65072932906291E-06
     -5.92483642953629E-14  -1.65072932934190E-06  -5.92483642935350E-14  -3.21405841119519E+09   5.92483642951706E-14
      1.12533558260076E+02
      1.20000000000000E+00   0.00000000000000E+00  -3.21405841119519E+09   5.92483642936598E-14  -1.65072932910570E-06
     -5.92483642949124E-14  -1.65072932939540E-06  -5.92483642930837E-14  -3.21405841119519E+09   5.92483642947160E-14
      2.03091762090474E+02
      1.20000000000000E+00   0.00000000000000E+00  -3.21405841119519E+09   5.92483642922073E-14  -1.65072932924538E-06
     -5.92483642934599E-14  -1.65072932953748E-06  -5.92483642916302E-14  -3.21405841119519E+09   5.92483642932605E-14
      3.66524123707963E+02
      1.20000000000000E+00   0.00000000000000E+00  -3.21405841119519E+09   5.92483642874806E-14  -1.65072932970163E-06
     -5.92483642887506E-14  -1.65072932998979E-06  -5.92483642869248E-14  -3.21405841119519E+09   5.92483642885577E-14
      6.61474064123015E+02
      1.20000000000000E+00   0.00000000000000E+00  -3.21405841119519E+09   5.92483642721466E-14  -1.65072933118589E-06
     -5.92483642733870E-14  -1.65072933147363E-06  -5.92483642715586E-14  -3.21405841119519E+09   5.92483642731843E-14
      1.19377664171444E+03
      1.20000000000000E+00   0.00000000000000E+00  -3.21405841119519E+09   5.92483642221201E-14  -1.65072933602097E-06
     -5.92483642233695E-14  -1.65072933629271E-06  -5.92483642215400E-14  -3.21405841119519E+09   5.92483642231660E-14
      2.15443469003188E+03
      1.20000000000000E+00   0.00000000000000E+00  -3.21405841119519E+09   5.92483640591965E-14  -1.65072935176994E-06
     -5.92483640604476E-14  -1.65072935205079E-06  -5.92483640586196E-14  -3.21405841119519E+09   5.92483640602475E-14
      3.88815518030809E+03
      1.20000000000000E+00   0.00000000000000E+00  -3.21405841119519E+09   5.92483635284716E-14  -1.65072940306532E-06
     -5.92483635297542E-14  -1.65072940333868E-06  -5.92483635279357E-14  -3.21405841119519E+09   5.92483635295944E-14
      7.01703828670382E+03
      1.20000000000000E+00   0.00000000000000E+00  -3.21405841119519E+09   5.92483617999503E-14  -1.65072957013265E-06
     -5.92483618011748E-14  -1.65072957038301E-06  -5.92483617994373E-14  -3.21405841119519E+09   5.92483618010407E-14
      1.26638017346740E+04
      1.20000000000000E+00   0.00000000000000E+00  -3.21405841119519E+09   5.92483561704907E-14  -1.65073011426801E-06
     -5.92483561716729E-14  -1.65073011450686E-06  -5.92483561698881E-14  -3.21405841119519E+09   5.92483561714503E-14
      2.28546386413499E+04
      1.20000000000000E+00   0.00000000000000E+00  -3.21405841119519E+09   5.92483378331457E-14  -1.65073188654096E-06
     -5.92483378351494E-14  -1.65073188678683E-06  -5.92483378332261E-14  -3.21405841119519E+09   5.92483378356209E-14
      4.12462638290135E+04
      1.20000000000000E+00   0.00000000000000E+00  -3.21405841119519E+09   5.92482781080792E-14  -1.65073765870731E-06
     -5.92482781085926E-14  -1.65073765903071E-06  -5.92482781063091E-14  -3.21405841119519E+09   5.92482781071871E-14
      7.44380301325169E+04
      1.20000000000000E+00   0.00000000000000E+00  -3.21405841119519E+09   5.92480835925456E-14  -1.65075645866865E-06
     -5.92480835911879E-14  -1.65075645896940E-06  -5.92480835889043E-14  -3.21405841119519E+09   5.92480835879197E-14
      1.34339933259890E+05
      1.20000000000000E+00   0.00000000000000E+00  -3.21405841119519E+09   5.92474500774372E-14  -1.65081768614362E-06
     -5.92474500742037E-14  -1.65081768649667E-06  -5.92474500715465E-14  -3.21405841119519E+09   5.92474500686677E-14
      2.42446201708233E+05
      1.20000000000000E+00   0.00000000000000E+00  -3.21405841119519E+09   5.92453871860309E-14  -1.65101706021869E-06
     -5.92453871733892E-14  -1.65101706053533E-06  -5.92453871708679E-14  -3.21405841119519E+09   5.92453871586375E-14
      4.37547937507419E+05
      1.20000000000000E+00   0.00000000000000E+00  -3.21405841119519E+09   5.92386732727744E-14  -1.65166594741546E-06
     -5.92386732744363E-14  -1.65166594777482E-06  -5.92386732725645E-14  -3.21405841119519E+09   5.92386732745591E-14
      7.89652286849972E+05
      1.20000000000000E+00   0.00000000000000E+00  -3.21405841119519E+09   5.92168587862149E-14  -1.65377431599750E-06
     -5.92168587980537E-14  -1.65377431644972E-06  -5.92168587953701E-14  -3.21405841119519E+09   5.92168588076286E-14
      1.42510267030300E+06
      1.20000000000000E+00   0.00000000000000E+00  -3.21405841119519E+09   5.91463645884916E-14  -1.66058798949999E-06
     -5.91463645888878E-14  -1.66058798975276E-06  -5.91463645872821E-14  -3.21405841119519E+09   5.91463645880601E-14
      2.57191380905934E+06
      1.20000000000000E+00   0.00000000000000E+00  -3.21405841119519E+09   5.89225032575792E-14  -1.68222972951887E-06
     -5.89225032510478E-14  -1.68222972972537E-06  -5.89225032515654E-14  -3.21405841119519E+09   5.89225032454109E-14
      4.64158883361278E+06
      1.20000000000000E+00   0.00000000000000E+00  -3.21405841119519E+09   5.82492668510009E-14  -1.74735707534533E-06
     -5.82492668265747E-14  -1.74735707541538E-06  -5.82492668263182E-14  -3.21405841119519E+09   5.82492668022514E-14
      8.37677640068293E+06
      1.20000000000000E+00   0.00000000000000E+00  -3.21405841119519E+09   5.65161262742411E-14  -1.91539431658274E-06
     -5.65161262724429E-14  -1.91539431683807E-06  -5.65161262719689E-14  -3.21405841119519E+09   5.65161262705337E-14
      1.51177507061567E+07
      1.20000000000000E+00   0.00000000000000E+00  -3.21405841119519E+09   5.34026197766772E-14  -2.21989062994392E-06
     -5.34026197641130E-14  -2.21989063024766E-06  -5.34026197620852E-14  -3.21405841119519E+09   5.34026197498821E-14
      2.72833337648676E+07
      1.20000000000000E+00   0.00000000000000E+00  -3.21405841119519E+09   5.02563338073383E-14  -2.54072629490406E-06
     -5.02563337945073E-14  -2.54072629499240E-06  -5.02563337941123E-14  -3.21405841119519E+09   5.02563337816757E-14
      4.92388263170673E+07
      1.20000000000000E+00   0.00000000000000E+00  -3.21405841119519E+09   4.84751322462671E-14  -2.77356639617619E-06
     -4.84751322314590E-14  -2.77356639617561E-06  -4.84751322314711E-14  -3.21405841119519E+09   4.84751322170452E-14
      8.88623816274339E+07
      1.20000000000000E+00   0.00000000000000E+00  -3.21405841119519E+09   4.77735941224821E-14  -3.04268270383270E-06
     -4.77735941070289E-14  -3.04268270391767E-06  -4.77735941070092E-14  -3.21405841119519E+09   4.77735940918831E-14
      1.60371874375133E+08
      1.20000000000000E+00   0.00000000000000E+00  -3.21405841119519E+09   4.75263492638562E-14  -3.72340912117797E-06
     -4.75263492505700E-14  -3.72340912125667E-06  -4.75263492505687E-14  -3.21405841119519E+09   4.75263492376303E-14
      2.89426612471675E+08
      1.20000000000000E+00   0.00000000000000E+00  -3.21405841119519E+09   4.74050278865655E-14  -5.87158194419332E-06
     -4.74050278640361E-14  -5.87158194436366E-06  -4.74050278640348E-14  -3.21405841119519E+09   4.74050278418480E-14
      5.22334507426686E+08
      1.20000000000000E+00   0.00000000000000E+00  -3.21405841119518E+09   4.72267548704798E-14  -1.28121208877241E-05
     -4.72267548517236E-14  -1.28121208878291E-05  -4.72267548517243E-14  -3.21405841119518E+09   4.72267548332577E-14
      9.42668455117888E+08
      1.20000000000000E+00   0.00000000000000E+00  -3.21405841119516E+09   4.67220648616260E-14  -3.50448935884147E-05
     -4.67220648446146E-14  -3.50448935885898E-05  -4.67220648446135E-14  -3.21405841119516E+09   4.67220648279371E-14
      1.70125427985259E+09
      1.20000000000000E+00   0.00000000000000E+00  -3.21405841119509E+09   4.51856910675582E-14  -1.03827491534649E-04
     -4.51856910496302E-14  -1.03827491534741E-04  -4.51856910496291E-14  -3.21405841119509E+09   4.51856910320270E-14
      3.07029062975785E+09
      1.20000000000000E+00   0.00000000000000E+00  -3.21405841119490E+09   4.09307894555223E-14  -2.95809371698070E-04
     -4.09307894398372E-14  -2.95809371698123E-04  -4.09307894398369E-14  -3.21405841119490E+09   4.09307894245260E-14
      5.54102033000949E+09
      1.20000000000000E+00   0.00000000000000E+00  -3.21405841119448E+09   3.19024223710629E-14  -7.09746100719030E-04
     -3.19024223589977E-14  -7.09746100719013E-04  -3.19024223589974E-14  -3.21405841119448E+09   3.19024223473098E-14
      1.00000000000000E+10
      1.20000000000000E+00   0.00000000000000E+00  -3.21405841119391E+09   2.01998731583411E-14  -1.27682093670717E-03
     -2.01998731521741E-14  -1.27682093670721E-03  -2.01998731521731E-14  -3.21405841119391E+09   2.01998731463557E-14
}
