DF-ISE text

Info {
  version   = 1.0
  type      = xyplot
  datasets  = [
    "frequency"
    "v(g)" "v(b)" "a(g,g)" "c(g,g)" "a(g,b)"
    "c(g,b)" "a(b,g)" "c(b,g)" "a(b,b)" "c(b,b)" ]
  functions = [
    Frequency
    Voltage Voltage Admittance Capacitance Admittance
    Capacitance Admittance Capacitance Admittance Capacitance ]
}

Data {
      1.00000000000000E+00
      2.00000000000000E+01   0.00000000000000E+00  -3.21405841119451E+09   4.34727486028281E-16  -6.86415823858500E-04
     -4.34727485778711E-16  -6.86415823861186E-04  -4.34727485772648E-16  -3.21405841119451E+09   4.34727485786002E-16
      1.80472176682717E+00
      2.00000000000000E+01   0.00000000000000E+00  -3.21405841119451E+09   4.34727486041742E-16  -6.86415823858500E-04
     -4.34727485778699E-16  -6.86415823861186E-04  -4.34727485772647E-16  -3.21405841119451E+09   4.34727485786286E-16
      3.25702065565978E+00
      2.00000000000000E+01   0.00000000000000E+00  -3.21405841119451E+09   4.34727486036537E-16  -6.86415823858500E-04
     -4.34727485778706E-16  -6.86415823861186E-04  -4.34727485772644E-16  -3.21405841119451E+09   4.34727485787145E-16
      5.87801607227491E+00
      2.00000000000000E+01   0.00000000000000E+00  -3.21405841119451E+09   4.34727486045970E-16  -6.86415823858500E-04
     -4.34727485778709E-16  -6.86415823861186E-04  -4.34727485772643E-16  -3.21405841119451E+09   4.34727485785083E-16
      1.06081835513945E+01
      2.00000000000000E+01   0.00000000000000E+00  -3.21405841119451E+09   4.34727486044925E-16  -6.86415823858500E-04
     -4.34727485778713E-16  -6.86415823861186E-04  -4.34727485772651E-16  -3.21405841119451E+09   4.34727485786315E-16
      1.91448197616996E+01
      2.00000000000000E+01   0.00000000000000E+00  -3.21405841119451E+09   4.34727486029602E-16  -6.86415823858500E-04
     -4.34727485778703E-16  -6.86415823861186E-04  -4.34727485772646E-16  -3.21405841119451E+09   4.34727485786470E-16
      3.45510729459222E+01
      2.00000000000000E+01   0.00000000000000E+00  -3.21405841119451E+09   4.34727486022114E-16  -6.86415823858500E-04
     -4.34727485778708E-16  -6.86415823861186E-04  -4.34727485772649E-16  -3.21405841119451E+09   4.34727485784792E-16
      6.23550734127392E+01
      2.00000000000000E+01   0.00000000000000E+00  -3.21405841119451E+09   4.34727486039339E-16  -6.86415823858500E-04
     -4.34727485778692E-16  -6.86415823861186E-04  -4.34727485772648E-16  -3.21405841119451E+09   4.34727485785214E-16
      1.12533558260076E+02
      2.00000000000000E+01   0.00000000000000E+00  -3.21405841119451E+09   4.34727486036316E-16  -6.86415823858500E-04
     -4.34727485778709E-16  -6.86415823861185E-04  -4.34727485772650E-16  -3.21405841119451E+09   4.34727485786060E-16
      2.03091762090474E+02
      2.00000000000000E+01   0.00000000000000E+00  -3.21405841119451E+09   4.34727486037036E-16  -6.86415823858500E-04
     -4.34727485778709E-16  -6.86415823861185E-04  -4.34727485772647E-16  -3.21405841119451E+09   4.34727485786358E-16
      3.66524123707963E+02
      2.00000000000000E+01   0.00000000000000E+00  -3.21405841119451E+09   4.34727486037017E-16  -6.86415823858502E-04
     -4.34727485778702E-16  -6.86415823861185E-04  -4.34727485772645E-16  -3.21405841119451E+09   4.34727485786747E-16
      6.61474064123015E+02
      2.00000000000000E+01   0.00000000000000E+00  -3.21405841119451E+09   4.34727486043028E-16  -6.86415823858502E-04
     -4.34727485778709E-16  -6.86415823861186E-04  -4.34727485772649E-16  -3.21405841119451E+09   4.34727485786373E-16
      1.19377664171444E+03
      2.00000000000000E+01   0.00000000000000E+00  -3.21405841119451E+09   4.34727486033727E-16  -6.86415823858500E-04
     -4.34727485778707E-16  -6.86415823861186E-04  -4.34727485772642E-16  -3.21405841119451E+09   4.34727485786092E-16
      2.15443469003188E+03
      2.00000000000000E+01   0.00000000000000E+00  -3.21405841119451E+09   4.34727486037359E-16  -6.86415823858500E-04
     -4.34727485778686E-16  -6.86415823861186E-04  -4.34727485772643E-16  -3.21405841119451E+09   4.34727485786011E-16
      3.88815518030809E+03
      2.00000000000000E+01   0.00000000000000E+00  -3.21405841119451E+09   4.34727486039681E-16  -6.86415823858503E-04
     -4.34727485778700E-16  -6.86415823861187E-04  -4.34727485772652E-16  -3.21405841119451E+09   4.34727485786030E-16
      7.01703828670382E+03
      2.00000000000000E+01   0.00000000000000E+00  -3.21405841119451E+09   4.34727486030835E-16  -6.86415823858507E-04
     -4.34727485778678E-16  -6.86415823861190E-04  -4.34727485772645E-16  -3.21405841119451E+09   4.34727485785958E-16
      1.26638017346740E+04
      2.00000000000000E+01   0.00000000000000E+00  -3.21405841119451E+09   4.34727486030288E-16  -6.86415823858522E-04
     -4.34727485778755E-16  -6.86415823861210E-04  -4.34727485772675E-16  -3.21405841119451E+09   4.34727485787096E-16
      2.28546386413499E+04
      2.00000000000000E+01   0.00000000000000E+00  -3.21405841119451E+09   4.34727486038987E-16  -6.86415823858512E-04
     -4.34727485778716E-16  -6.86415823861207E-04  -4.34727485772643E-16  -3.21405841119451E+09   4.34727485786579E-16
      4.12462638290135E+04
      2.00000000000000E+01   0.00000000000000E+00  -3.21405841119451E+09   4.34727486042615E-16  -6.86415823858690E-04
     -4.34727485778439E-16  -6.86415823861397E-04  -4.34727485772593E-16  -3.21405841119451E+09   4.34727485786572E-16
      7.44380301325169E+04
      2.00000000000000E+01   0.00000000000000E+00  -3.21405841119451E+09   4.34727486026743E-16  -6.86415823857660E-04
     -4.34727485780037E-16  -6.86415823860254E-04  -4.34727485772902E-16  -3.21405841119451E+09   4.34727485786491E-16
      1.34339933259890E+05
      2.00000000000000E+01   0.00000000000000E+00  -3.21405841119451E+09   4.34727486026938E-16  -6.86415823858253E-04
     -4.34727485778898E-16  -6.86415823860899E-04  -4.34727485772639E-16  -3.21405841119451E+09   4.34727485786644E-16
      2.42446201708233E+05
      2.00000000000000E+01   0.00000000000000E+00  -3.21405841119451E+09   4.34727486032237E-16  -6.86415823858306E-04
     -4.34727485777588E-16  -6.86415823860841E-04  -4.34727485772390E-16  -3.21405841119451E+09   4.34727485786226E-16
      4.37547937507419E+05
      2.00000000000000E+01   0.00000000000000E+00  -3.21405841119451E+09   4.34727486022709E-16  -6.86415823859181E-04
     -4.34727485775852E-16  -6.86415823861889E-04  -4.34727485771310E-16  -3.21405841119451E+09   4.34727485785427E-16
      7.89652286849972E+05
      2.00000000000000E+01   0.00000000000000E+00  -3.21405841119451E+09   4.34727486030344E-16  -6.86415823859180E-04
     -4.34727485776518E-16  -6.86415823861892E-04  -4.34727485770448E-16  -3.21405841119451E+09   4.34727485782772E-16
      1.42510267030300E+06
      2.00000000000000E+01   0.00000000000000E+00  -3.21405841119451E+09   4.34727486036226E-16  -6.86415823860606E-04
     -4.34727485771521E-16  -6.86415823863258E-04  -4.34727485765480E-16  -3.21405841119451E+09   4.34727485782066E-16
      2.57191380905934E+06
      2.00000000000000E+01   0.00000000000000E+00  -3.21405841119451E+09   4.34727485990829E-16  -6.86415823865291E-04
     -4.34727485754609E-16  -6.86415823867984E-04  -4.34727485748567E-16  -3.21405841119451E+09   4.34727485760611E-16
      4.64158883361278E+06
      2.00000000000000E+01   0.00000000000000E+00  -3.21405841119451E+09   4.34727485952348E-16  -6.86415823880949E-04
     -4.34727485700004E-16  -6.86415823883667E-04  -4.34727485694190E-16  -3.21405841119451E+09   4.34727485711321E-16
      8.37677640068293E+06
      2.00000000000000E+01   0.00000000000000E+00  -3.21405841119451E+09   4.34727485779605E-16  -6.86415823930592E-04
     -4.34727485523832E-16  -6.86415823933277E-04  -4.34727485517732E-16  -3.21405841119451E+09   4.34727485527936E-16
      1.51177507061567E+07
      2.00000000000000E+01   0.00000000000000E+00  -3.21405841119451E+09   4.34727485211646E-16  -6.86415824093514E-04
     -4.34727484947940E-16  -6.86415824096133E-04  -4.34727484942301E-16  -3.21405841119451E+09   4.34727484955738E-16
      2.72833337648676E+07
      2.00000000000000E+01   0.00000000000000E+00  -3.21405841119451E+09   4.34727483328649E-16  -6.86415824623193E-04
     -4.34727483073826E-16  -6.86415824625771E-04  -4.34727483067892E-16  -3.21405841119451E+09   4.34727483079223E-16
      4.92388263170673E+07
      2.00000000000000E+01   0.00000000000000E+00  -3.21405841119451E+09   4.34727477227264E-16  -6.86415826349400E-04
     -4.34727476968538E-16  -6.86415826352054E-04  -4.34727476963036E-16  -3.21405841119451E+09   4.34727476977100E-16
      8.88623816274339E+07
      2.00000000000000E+01   0.00000000000000E+00  -3.21405841119451E+09   4.34727457344682E-16  -6.86415831970654E-04
     -4.34727457086290E-16  -6.86415831973611E-04  -4.34727457080355E-16  -3.21405841119451E+09   4.34727457096760E-16
      1.60371874375133E+08
      2.00000000000000E+01   0.00000000000000E+00  -3.21405841119451E+09   4.34727392588188E-16  -6.86415850278585E-04
     -4.34727392332172E-16  -6.86415850281200E-04  -4.34727392326111E-16  -3.21405841119451E+09   4.34727392341520E-16
      2.89426612471675E+08
      2.00000000000000E+01   0.00000000000000E+00  -3.21405841119451E+09   4.34727181753968E-16  -6.86415909894628E-04
     -4.34727181494511E-16  -6.86415909897416E-04  -4.34727181488098E-16  -3.21405841119451E+09   4.34727181500109E-16
      5.22334507426686E+08
      2.00000000000000E+01   0.00000000000000E+00  -3.21405841119451E+09   4.34726496435571E-16  -6.86416103931314E-04
     -4.34726496177329E-16  -6.86416103934158E-04  -4.34726496171385E-16  -3.21405841119451E+09   4.34726496183966E-16
      9.42668455117888E+08
      2.00000000000000E+01   0.00000000000000E+00  -3.21405841119451E+09   4.34724288563749E-16  -6.86416734461172E-04
     -4.34724288302129E-16  -6.86416734464131E-04  -4.34724288296119E-16  -3.21405841119451E+09   4.34724288309488E-16
      1.70125427985259E+09
      2.00000000000000E+01   0.00000000000000E+00  -3.21405841119451E+09   4.34717404559778E-16  -6.86418773122859E-04
     -4.34717404320411E-16  -6.86418773125948E-04  -4.34717404314557E-16  -3.21405841119451E+09   4.34717404327169E-16
      3.07029062975785E+09
      2.00000000000000E+01   0.00000000000000E+00  -3.21405841119451E+09   4.34697918617788E-16  -6.86425275908420E-04
     -4.34697918367030E-16  -6.86425275911501E-04  -4.34697918361797E-16  -3.21405841119451E+09   4.34697918376389E-16
      5.54102033000949E+09
      2.00000000000000E+01   0.00000000000000E+00  -3.21405841119451E+09   4.34655009907389E-16  -6.86445505725122E-04
     -4.34655009650809E-16  -6.86445505728079E-04  -4.34655009646314E-16  -3.21405841119451E+09   4.34655009660053E-16
      1.00000000000000E+10
      2.00000000000000E+01   0.00000000000000E+00  -3.21405841119451E+09   4.34597605000687E-16  -6.86507722940459E-04
     -4.34597604754727E-16  -6.86507722943147E-04  -4.34597604751083E-16  -3.21405841119451E+09   4.34597604764186E-16
}
