DF-ISE text

Info {
  version   = 1.0
  type      = xyplot
  datasets  = [
    "time" "v(g)" "v(b)" ]
  functions = [
    Time Voltage Voltage ]
}

Data {
}
