DF-ISE text

Info {
  version   = 1.0
  type      = xyplot
  datasets  = [
    "time"
    "ntype OuterVoltage" "ntype InnerVoltage" "ntype QuasiFermiPotential" "ntype DisplacementCurrent" "ntype eCurrent"
    "ntype hCurrent" "ntype TotalCurrent" "ntype Charge" "ptype OuterVoltage" "ptype InnerVoltage"
    "ptype QuasiFermiPotential" "ptype DisplacementCurrent" "ptype eCurrent" "ptype hCurrent" "ptype TotalCurrent"
    "ptype Charge" ]
  functions = [
    Time
    OuterVoltage InnerVoltage QuasiFermiPotential DisplacementCurrent eCurrent
    hCurrent TotalCurrent Charge OuterVoltage InnerVoltage
    QuasiFermiPotential DisplacementCurrent eCurrent hCurrent TotalCurrent
    Charge ]
}

Data {
      1.00000000000000E-13
      9.99997779972103E-01   9.99997779968925E-01   0.00000000000000E+00   1.28961254387673E-15   9.58512851059734E-09
      2.21295795989819E-08   3.17147093991918E-08   1.79808775404792E-28   0.00000000000000E+00   3.17145836149366E-12
      0.00000000000000E+00  -1.19367574616188E-17   2.69719438906875E-13  -3.17149797093385E-08  -3.17147100018363E-08
     -1.18062070567511E-29
      2.30000000000000E-13
      9.99997779970119E-01   9.99997779966946E-01   0.00000000000000E+00  -1.86910937999409E-15   9.58513179903196E-09
      2.21295796276939E-08   3.17147095576165E-08   1.23747436670660E-28   0.00000000000000E+00   3.17147218822688E-12
      0.00000000000000E+00  -2.28428487005323E-18   2.69718926179739E-13  -3.17149798525552E-08  -3.17147101359133E-08
      1.80963993410857E-29
      3.99000000000000E-13
      9.99997779970803E-01   9.99997779967636E-01   0.00000000000000E+00   7.96514138036952E-16   9.58512917542689E-09
      2.21295796092110E-08   3.17147095811521E-08  -5.81776255421020E-28   0.00000000000000E+00   3.17147026516409E-12
      0.00000000000000E+00  -2.23249665739575E-18   2.69717644361902E-13  -3.17149798964429E-08  -3.17147101810310E-08
     -1.25803845686692E-30
      6.18700000000000E-13
      9.99997779970807E-01   9.99997779967638E-01   0.00000000000000E+00   1.46458745153192E-15   9.58512851193829E-09
      2.21295796057851E-08   3.17147095823109E-08  -5.18196927254746E-28   0.00000000000000E+00   3.17147180116305E-12
      0.00000000000000E+00   3.06921738461375E-18   2.69713128419059E-13  -3.17149798814961E-08  -3.17147101652984E-08
      3.21283667446014E-29
      9.04310000000000E-13
      9.99997779970569E-01   9.99997779967401E-01   0.00000000000000E+00  -9.72970075380582E-16   9.58513089602083E-09
      2.21295796227850E-08   3.17147095458357E-08   2.81873193479933E-28   0.00000000000000E+00   3.17147230982770E-12
      0.00000000000000E+00  -4.57861890859243E-18   2.69720326319224E-13  -3.17149798638573E-08  -3.17147101481096E-08
      6.67728104029366E-30
      1.27560300000000E-12
      9.99997779970976E-01   9.99997779967810E-01   0.00000000000000E+00   3.41164655949050E-16   9.58512961096889E-09
      2.21295796128135E-08   3.17147095649471E-08   5.71418607068210E-28   0.00000000000000E+00   3.17147197819368E-12
      0.00000000000000E+00  -4.83561148736258E-18   2.69720385480047E-13  -3.17149799673128E-08  -3.17147102517630E-08
     -7.35468636322200E-30
      1.75828390000000E-12
      9.99997779970170E-01   9.99997779966996E-01   0.00000000000000E+00  -9.62176745662512E-16   9.58513091572140E-09
      2.21295796255621E-08   3.17147095791068E-08  -2.47000427938200E-28   0.00000000000000E+00   3.17147084140033E-12
      0.00000000000000E+00  -1.33284549674411E-18   2.69717604921353E-13  -3.17149799097406E-08  -3.17147101934685E-08
      7.83854730817081E-30
      2.25828390000000E-12
      9.99997779969688E-01   9.99997779966513E-01   0.00000000000000E+00   8.76427143447729E-16   9.58512907595783E-09
      2.21295796098890E-08   3.17147095622740E-08   2.24866813837697E-28   0.00000000000000E+00   3.17147007816145E-12
      0.00000000000000E+00   3.47194018788958E-18   2.69712852335217E-13  -3.17149797875464E-08  -3.17147100712221E-08
     -3.29025442565195E-30
      2.75828390000000E-12
      9.99997779970435E-01   9.99997779967263E-01   0.00000000000000E+00   1.08750390490699E-15   9.58512888451343E-09
      2.21295796099085E-08   3.17147095819258E-08  -9.21953180701832E-28   0.00000000000000E+00   3.17147077341433E-12
      0.00000000000000E+00   4.24898803672057E-18   2.69711787440398E-13  -3.17149797150177E-08  -3.17147099989812E-08
     -7.25791417423224E-30
      3.25828390000000E-12
      9.99997779970042E-01   9.99997779966873E-01   0.00000000000000E+00   5.32818038065379E-16   9.58512942518418E-09
      2.21295796135684E-08   3.17147095715707E-08  -2.28489722663002E-28   0.00000000000000E+00   3.17147070370107E-12
      0.00000000000000E+00  -3.33192580599221E-18   2.69719399466326E-13  -3.17149796129308E-08  -3.17147098968633E-08
      4.64506507150863E-30
      3.75828390000000E-12
      9.99997779970476E-01   9.99997779967309E-01   0.00000000000000E+00  -2.50930057130528E-16   9.58513021145124E-09
      2.21295796210604E-08   3.17147095815816E-08  -3.57184637495763E-28   0.00000000000000E+00   3.17147087870853E-12
      0.00000000000000E+00   6.98717475127266E-18   2.69709006881704E-13  -3.17149795740177E-08  -3.17147098580237E-08
      2.32253253575432E-30
      4.25828390000000E-12
      9.99997779970378E-01   9.99997779967212E-01   0.00000000000000E+00  -1.41689437008049E-15   9.58513136348995E-09
      2.21295796304293E-08   3.17147095770249E-08  -1.38148348044699E-28   0.00000000000000E+00   3.17147085277365E-12
      0.00000000000000E+00  -5.86269180729781E-19   2.69716618907632E-13  -3.17149795440939E-08  -3.17147098280613E-08
     -7.16114198524247E-30
      4.75828390000000E-12
      9.99997779969780E-01   9.99997779966605E-01   0.00000000000000E+00  -2.40348615382891E-15   9.58513233232732E-09
      2.21295796373112E-08   3.17147095661523E-08   1.85537840199531E-27   0.00000000000000E+00   3.17147013203307E-12
      0.00000000000000E+00  -6.16047727035193E-18   2.69722278626392E-13  -3.17149794780175E-08  -3.17147097618994E-08
     -1.78060827741164E-29
      5.00000000000000E-12
      9.99997779969505E-01   9.99997779966326E-01   0.00000000000000E+00  -1.82277157105300E-15   9.58513175546983E-09
      2.21295796328711E-08   3.17147095655694E-08   5.67792674112000E-28   0.00000000000000E+00   3.17146852516687E-12
      0.00000000000000E+00   1.15202958983321E-18   2.69714863803208E-13  -3.17149794442230E-08  -3.17147097282071E-08
     -8.70949700907868E-31
      5.50000000000000E-12
      9.99997779970184E-01   9.99997779967014E-01   0.00000000000000E+00  -9.36701887532343E-16   9.58513088440562E-09
      2.21295796261216E-08   3.17147095738253E-08   1.21558268307857E-27   0.00000000000000E+00   3.17147013027167E-12
      0.00000000000000E+00   2.52315351855741E-18   2.69713384782626E-13  -3.17149794086554E-08  -3.17147096927474E-08
     -3.77411537060076E-29
      6.00000000000000E-12
      9.99997779970237E-01   9.99997779967071E-01   0.00000000000000E+00  -1.23871931206557E-15   9.58513118442986E-09
      2.21295796286709E-08   3.17147095743815E-08   1.80599283223602E-27   0.00000000000000E+00   3.17147051688705E-12
      0.00000000000000E+00   6.91102400160212E-18   2.69709204084448E-13  -3.17149793717741E-08  -3.17147096556590E-08
     -1.25803845686692E-30
      6.50000000000000E-12
      9.99997779970023E-01   9.99997779966852E-01   0.00000000000000E+00  -6.56234727682318E-16   9.58513060274093E-09
      2.21295796234126E-08   3.17147095699188E-08   2.92701094188615E-28   0.00000000000000E+00   3.17147029889841E-12
      0.00000000000000E+00  -1.31132575975847E-18   2.69717368278060E-13  -3.17149793233713E-08  -3.17147096073143E-08
      3.38702661464171E-30
      7.00000000000000E-12
      9.99997779969879E-01   9.99997779966702E-01   0.00000000000000E+00  -1.33233855810154E-15   9.58513127149485E-09
      2.21295796284150E-08   3.17147095675713E-08  -5.55044450278051E-28   0.00000000000000E+00   3.17147018575003E-12
      0.00000000000000E+00  -1.20016277388402E-18   2.69717309117237E-13  -3.17149792445918E-08  -3.17147095284829E-08
      6.87082541827318E-30
      7.50000000000000E-12
      9.99997779970054E-01   9.99997779966886E-01   0.00000000000000E+00   3.04559591977197E-16   9.58512965088272E-09
      2.21295796155116E-08   3.17147095709539E-08   3.55754223577258E-28   0.00000000000000E+00   3.17147020225869E-12
      0.00000000000000E+00  -2.41656579898848E-18   2.69718314851232E-13  -3.17149792065003E-08  -3.17147094906020E-08
      1.64512721282597E-29
      8.00000000000000E-12
      9.99997779970023E-01   9.99997779966844E-01   0.00000000000000E+00  -2.08395972086969E-15   9.58513202011594E-09
      2.21295796347542E-08   3.17147095709104E-08  -4.42536196119281E-28   0.00000000000000E+00   3.17147043440643E-12
      0.00000000000000E+00  -9.78346605179544E-19   2.69717013313120E-13  -3.17149791285289E-08  -3.17147094124939E-08
      2.09995650107786E-29
      8.50000000000000E-12
      9.99997779969659E-01   9.99997779966494E-01   0.00000000000000E+00   4.44365140402033E-16   9.58512950495268E-09
      2.21295796136609E-08   3.17147095629787E-08   4.38651699970614E-28   0.00000000000000E+00   3.17146986563469E-12
      0.00000000000000E+00   1.03029467133401E-18   2.69715100446501E-13  -3.17149790817093E-08  -3.17147093655786E-08
      3.21283667446014E-29
      9.00000000000000E-12
      9.99997779970088E-01   9.99997779966920E-01   0.00000000000000E+00  -1.48656617975178E-15   9.58513142951341E-09
      2.21295796300112E-08   3.17147095729584E-08   6.12019076545774E-28   0.00000000000000E+00   3.17147037160596E-12
      0.00000000000000E+00   3.66438651679714E-18   2.69712339608082E-13  -3.17149790071741E-08  -3.17147092911701E-08
      5.41924258342674E-30
      9.50000000000000E-12
      9.99997779970275E-01   9.99997779967106E-01   0.00000000000000E+00  -1.27171352748102E-15   9.58513121754019E-09
      2.21295796290253E-08   3.17147095748519E-08   1.41665412288295E-28   0.00000000000000E+00   3.17147044743602E-12
      0.00000000000000E+00   1.11132743320969E-18   2.69714844082934E-13  -3.17149790143009E-08  -3.17147092983455E-08
     -1.48061449154338E-29
      1.00000000000000E-11
      9.99997779970285E-01   9.99997779967118E-01   0.00000000000000E+00   2.16069849810943E-15   9.58512778717874E-09
      2.21295795974071E-08   3.17147095452843E-08   8.67450781449707E-28   0.00000000000000E+00   3.17147110480863E-12
      0.00000000000000E+00   1.93703987095983E-18   2.69713798908389E-13  -3.17149790644611E-08  -3.17147093487251E-08
      6.77405322928342E-31
      1.05000000000000E-11
      9.99997779970533E-01   9.99997779967358E-01   0.00000000000000E+00  -9.66189193727347E-16   9.58513093031441E-09
      2.21295796262235E-08   3.17147095903487E-08   1.22262588395848E-28   0.00000000000000E+00   3.17147108423164E-12
      0.00000000000000E+00  -2.36626379181645E-20   2.69716007579125E-13  -3.17149790417819E-08  -3.17147093257980E-08
      2.85477957519801E-29
      1.10000000000000E-11
      9.99997779970044E-01   9.99997779966873E-01   0.00000000000000E+00   1.72276880459438E-15   9.58512823968016E-09
      2.21295796039411E-08   3.17147095663900E-08   3.50170165859458E-28   0.00000000000000E+00   3.17147049134733E-12
      0.00000000000000E+00  -5.45147084649322E-18   2.69721470095140E-13  -3.17149790041912E-08  -3.17147092881726E-08
     -4.00636862417619E-29
      1.15000000000000E-11
      9.99997779970206E-01   9.99997779967031E-01   0.00000000000000E+00   1.00991588652289E-15   9.58512895736011E-09
      2.21295796096607E-08   3.17147095769367E-08  -4.29122663486028E-28   0.00000000000000E+00   3.17147065878996E-12
      0.00000000000000E+00  -6.61863035379757E-18   2.69722475829136E-13  -3.17149789252887E-08  -3.17147092094316E-08
     -9.77399108796608E-30
      1.20000000000000E-11
      9.99997779970229E-01   9.99997779967061E-01   0.00000000000000E+00   1.19355875932428E-15   9.58512877177261E-09
      2.21295796082193E-08   3.17147095735507E-08   1.29385777538221E-27   0.00000000000000E+00   3.17147076000861E-12
      0.00000000000000E+00   1.54696709576952E-18   2.69714390516622E-13  -3.17149788677701E-08  -3.17147091518326E-08
     -1.15158904897818E-29
      1.25000000000000E-11
      9.99997779970497E-01   9.99997779967323E-01   0.00000000000000E+00  -5.01869709791239E-16   9.58513046032109E-09
      2.21295796228729E-08   3.17147095813243E-08   1.71129519704772E-28   0.00000000000000E+00   3.17147094494087E-12
      0.00000000000000E+00  -1.31965542306068E-18   2.69717111914492E-13  -3.17149788463514E-08  -3.17147091305591E-08
      1.28707011356385E-29
      1.30000000000000E-11
      9.99997779970056E-01   9.99997779966886E-01   0.00000000000000E+00  -5.61300172510264E-16   9.58513050776811E-09
      2.21295796225864E-08   3.17147095690543E-08   5.62557903513835E-28   0.00000000000000E+00   3.17147051438293E-12
      0.00000000000000E+00  -4.13986858338862E-18   2.69720129116479E-13  -3.17149788148212E-08  -3.17147090988319E-08
     -2.99026063978368E-29
      1.35000000000000E-11
      9.99997779969746E-01   9.99997779966571E-01   0.00000000000000E+00   2.06353240108060E-15   9.58512790179299E-09
      2.21295796004930E-08   3.17147095658184E-08  -1.77797728352348E-28   0.00000000000000E+00   3.17147003896204E-12
      0.00000000000000E+00  -2.06471961140086E-18   2.69718117648488E-13  -3.17149787510928E-08  -3.17147090350399E-08
      6.38696447332437E-30
      1.40000000000000E-11
      9.99997779970262E-01   9.99997779967088E-01   0.00000000000000E+00   3.82195799710091E-17   9.58512992020249E-09
      2.21295796175759E-08   3.17147095759980E-08   1.19199294994686E-27   0.00000000000000E+00   3.17147073884658E-12
      0.00000000000000E+00   2.34590623295752E-18   2.69713641146194E-13  -3.17149786689684E-08  -3.17147089529813E-08
      7.35468636322200E-30
      1.45000000000000E-11
      9.99997779969845E-01   9.99997779966668E-01   0.00000000000000E+00  -7.00840104908223E-16   9.58513064571141E-09
      2.21295796232154E-08   3.17147095680867E-08  -8.28052404007250E-29   0.00000000000000E+00   3.17147028294176E-12
      0.00000000000000E+00   4.71272303146624E-18   2.69711531076830E-13  -3.17149786265563E-08  -3.17147089103125E-08
     -1.08384851668535E-29
      1.50000000000000E-11
      9.99997779970642E-01   9.99997779967467E-01   0.00000000000000E+00   2.21522154919876E-16   9.58512972720019E-09
      2.21295796153527E-08   3.17147095640751E-08  -4.97483142614578E-28   0.00000000000000E+00   3.17147113412355E-12
      0.00000000000000E+00   4.10014714957091E-18   2.69711550797105E-13  -3.17149786959162E-08  -3.17147089802653E-08
      4.41281181793320E-29
      1.55000000000000E-11
      9.99997779969933E-01   9.99997779966759E-01   0.00000000000000E+00  -1.16507651254991E-15   9.58513111239171E-09
      2.21295796269999E-08   3.17147095743151E-08   8.88170614351687E-28   0.00000000000000E+00   3.17147043629852E-12
      0.00000000000000E+00   1.87946236949272E-18   2.69714331355798E-13  -3.17149786749691E-08  -3.17147089587583E-08
     -1.57738668053314E-29
      1.60000000000000E-11
      9.99997779970300E-01   9.99997779967125E-01   0.00000000000000E+00  -1.23221430730557E-16   9.58513007618988E-09
      2.21295796194595E-08   3.17147095724280E-08  -5.65129926849328E-28   0.00000000000000E+00   3.17147047834506E-12
      0.00000000000000E+00   3.94279082343335E-18   2.69711925482319E-13  -3.17149786699265E-08  -3.17147089540582E-08
     -7.35468636322200E-30
      1.65000000000000E-11
      9.99997779969818E-01   9.99997779966650E-01   0.00000000000000E+00  -1.47987885559792E-15   9.58513141805596E-09
      2.21295796294168E-08   3.17147095675939E-08   7.34145579050855E-28   0.00000000000000E+00   3.17147020711625E-12
      0.00000000000000E+00  -1.39684306027922E-18   2.69717526040255E-13  -3.17149786138616E-08  -3.17147088977324E-08
     -3.87088755959053E-30
      1.70000000000000E-11
      9.99997779969928E-01   9.99997779966750E-01   0.00000000000000E+00  -1.00561350309782E-15   9.58513094626810E-09
      2.21295796257767E-08   3.17147095664313E-08  -8.18189201057559E-28   0.00000000000000E+00   3.17147008216731E-12
      0.00000000000000E+00   1.15841508898294E-18   2.69714804642385E-13  -3.17149785848095E-08  -3.17147088688464E-08
      4.83860944948816E-30
      1.75000000000000E-11
      9.99997779970027E-01   9.99997779966853E-01   0.00000000000000E+00   1.02187415076040E-16   9.58512985165484E-09
      2.21295796170430E-08   3.17147095708853E-08   3.45024607123018E-28   0.00000000000000E+00   3.17147018748845E-12
      0.00000000000000E+00  -2.76515875189427E-18   2.69718728976995E-13  -3.17149785695551E-08  -3.17147088535912E-08
     -1.28707011356385E-29
      1.80000000000000E-11
      9.99997779970512E-01   9.99997779967343E-01   0.00000000000000E+00  -2.02955752334444E-15   9.58513197264921E-09
      2.21295796351646E-08   3.17147095782563E-08   4.26954361626476E-28   0.00000000000000E+00   3.17147083088222E-12
      0.00000000000000E+00   1.84664487859873E-18   2.69714035551682E-13  -3.17149785635539E-08  -3.17147088476717E-08
      2.19672869006762E-29
      1.85000000000000E-11
      9.99997779970129E-01   9.99997779966964E-01   0.00000000000000E+00   1.05868767665342E-17   9.58512994193427E-09
      2.21295796181381E-08   3.17147095706593E-08  -4.98642896817002E-28   0.00000000000000E+00   3.17147030925193E-12
      0.00000000000000E+00   1.65335175819364E-18   2.69714429957171E-13  -3.17149785820792E-08  -3.17147088659959E-08
      2.81607069960211E-29
      1.90000000000000E-11
      9.99997779970293E-01   9.99997779967121E-01   0.00000000000000E+00  -2.36251194383498E-16   9.58513018960119E-09
      2.21295796200175E-08   3.17147095733675E-08   1.00910712134528E-27   0.00000000000000E+00   3.17147061852092E-12
      0.00000000000000E+00   1.22785199178022E-18   2.69714725761287E-13  -3.17149785426797E-08  -3.17147088267260E-08
     -1.25803845686692E-29
      1.95000000000000E-11
      9.99997779970389E-01   9.99997779967216E-01   0.00000000000000E+00  -1.49776895476072E-15   9.58513144371202E-09
      2.21295796307402E-08   3.17147095766833E-08  -1.06440637909112E-27   0.00000000000000E+00   3.17147067557407E-12
      0.00000000000000E+00  -8.31553570937171E-19   2.69716678068455E-13  -3.17149785330652E-08  -3.17147088172186E-08
     -3.34831773904580E-29
      2.00000000000000E-11
      9.99997779970012E-01   9.99997779966840E-01   0.00000000000000E+00  -2.10547242430147E-15   9.58513203474840E-09
      2.21295796344454E-08   3.17147095637214E-08   1.58580888510615E-28   0.00000000000000E+00   3.17147033341323E-12
      0.00000000000000E+00  -3.31204348725944E-18   2.69719300864954E-13  -3.17149785162484E-08  -3.17147088002596E-08
      4.62571063371068E-29
      2.05000000000000E-11
      9.99997779969957E-01   9.99997779966789E-01   0.00000000000000E+00  -1.74653378763390E-15   9.58513168295840E-09
      2.21295796318549E-08   3.17147095682795E-08   6.97423557460146E-28   0.00000000000000E+00   3.17146999249796E-12
      0.00000000000000E+00  -1.76986767603461E-18   2.69717762683549E-13  -3.17149785038115E-08  -3.17147087878187E-08
     -1.94512099869424E-29
      2.10000000000000E-11
      9.99997779970094E-01   9.99997779966929E-01   0.00000000000000E+00  -2.71808068733084E-16   9.58513022020706E-09
      2.21295796200675E-08   3.17147095684665E-08  -4.55955777014346E-28   0.00000000000000E+00   3.17147019023424E-12
      0.00000000000000E+00   2.62599548185922E-18   2.69713345342077E-13  -3.17149784840755E-08  -3.17147087681042E-08
     -1.76125383961369E-29
      2.15000000000000E-11
      9.99997779969794E-01   9.99997779966620E-01   0.00000000000000E+00   3.37543473080086E-16   9.58512961351280E-09
      2.21295796142173E-08   3.17147095652735E-08  -1.08037076614353E-28   0.00000000000000E+00   3.17147005085784E-12
      0.00000000000000E+00  -1.13902097147068E-19   2.69716224502143E-13  -3.17149784137557E-08  -3.17147086976451E-08
     -1.09352573558432E-29
      2.20000000000000E-11
      9.99997779970246E-01   9.99997779967075E-01   0.00000000000000E+00  -3.76176589727423E-16   9.58513032855023E-09
      2.21295796208435E-08   3.17147095732171E-08   5.68110207857122E-28   0.00000000000000E+00   3.17147048900858E-12
      0.00000000000000E+00   1.28686385435539E-19   2.69715770935832E-13  -3.17149783747672E-08  -3.17147086588675E-08
      2.10963371997684E-29
      2.25000000000000E-11
      9.99997779969780E-01   9.99997779966605E-01   0.00000000000000E+00  -2.04382016214825E-15   9.58513197497621E-09
      2.21295796338214E-08   3.17147095649774E-08  -6.06853860958446E-28   0.00000000000000E+00   3.17147010597230E-12
      0.00000000000000E+00  -7.02275295526318E-19   2.69716894991474E-13  -3.17149783253203E-08  -3.17147086091276E-08
      1.20965236237204E-29
      2.30000000000000E-11
      9.99997779969809E-01   9.99997779966638E-01   0.00000000000000E+00  -5.95748648633964E-16   9.58513053734850E-09
      2.21295796220727E-08   3.17147095636725E-08  -3.65073082963881E-28   0.00000000000000E+00   3.17146988261606E-12
      0.00000000000000E+00  -7.92428347459556E-19   2.69716756949553E-13  -3.17149783040333E-08  -3.17147085880688E-08
     -2.51607691373384E-29
      2.35000000000000E-11
      9.99997779970131E-01   9.99997779966964E-01   0.00000000000000E+00   9.91382256064526E-16   9.58512897096709E-09
      2.21295796098028E-08   3.17147095721522E-08  -1.12266928512477E-27   0.00000000000000E+00   3.17147029383785E-12
      0.00000000000000E+00  -1.01315146387385E-18   2.69716894991474E-13  -3.17149782840474E-08  -3.17147085681655E-08
     -1.45158283484645E-29
      2.40000000000000E-11
      9.99997779970301E-01   9.99997779967125E-01   0.00000000000000E+00  -1.82688453240452E-15   9.58513176830775E-09
      2.21295796328099E-08   3.17147095742332E-08   3.48655076275587E-28   0.00000000000000E+00   3.17147072414965E-12
      0.00000000000000E+00   9.21715263599974E-19   2.69715021565403E-13  -3.17149782465631E-08  -3.17147085306199E-08
     -2.41930472474408E-30
      2.45000000000000E-11
      9.99997779969998E-01   9.99997779966826E-01   0.00000000000000E+00   1.06844671104236E-15   9.58512889031118E-09
      2.21295796090968E-08   3.17147095678547E-08  -1.22680372080502E-27   0.00000000000000E+00   3.17147018488903E-12
      0.00000000000000E+00   4.21328454215133E-18   2.69711846601221E-13  -3.17149782531315E-08  -3.17147085370716E-08
      6.96759760726295E-30
      2.50000000000000E-11
      9.99997779970406E-01   9.99997779967231E-01   0.00000000000000E+00   1.05636651746994E-16   9.58512985120127E-09
      2.21295796167939E-08   3.17147095736318E-08   7.52055994341226E-28   0.00000000000000E+00   3.17147080638478E-12
      0.00000000000000E+00   4.25415951336618E-18   2.69711669118751E-13  -3.17149782196393E-08  -3.17147085037160E-08
     -2.32253253575432E-29
      2.55000000000000E-11
      9.99997779970239E-01   9.99997779967071E-01   0.00000000000000E+00   1.43985648245087E-15   9.58512852801028E-09
      2.21295796062757E-08   3.17147095741425E-08   3.64424406884559E-28   0.00000000000000E+00   3.17147059899376E-12
      0.00000000000000E+00   2.49544701920207E-18   2.69713542544822E-13  -3.17149782118489E-08  -3.17147084958109E-08
     -1.90641212309833E-29
      2.60000000000000E-11
      9.99997779970082E-01   9.99997779966917E-01   0.00000000000000E+00   5.84049282256093E-16   9.58512937357620E-09
      2.21295796125123E-08   3.17147095701378E-08  -8.45551537494414E-28   0.00000000000000E+00   3.17147059229985E-12
      0.00000000000000E+00  -2.02487720736922E-18   2.69718038767390E-13  -3.17149781403943E-08  -3.17147084243804E-08
     -3.33864052014683E-29
      2.65000000000000E-11
      9.99997779970173E-01   9.99997779966997E-01   0.00000000000000E+00  -1.61343906182697E-15   9.58513155556543E-09
      2.21295796309351E-08   3.17147095730615E-08   1.96932916659621E-28   0.00000000000000E+00   3.17147053345690E-12
      0.00000000000000E+00  -7.52334930234002E-18   2.69723382961760E-13  -3.17149781145778E-08  -3.17147083987182E-08
      2.05157040658298E-29
      2.70000000000000E-11
      9.99997779969817E-01   9.99997779966650E-01   0.00000000000000E+00  -2.36458974983131E-15   9.58513229148664E-09
      2.21295796365171E-08   3.17147095634140E-08   4.09686574153615E-28   0.00000000000000E+00   3.17147003828253E-12
      0.00000000000000E+00  -2.74362605381428E-18   2.69718728976995E-13  -3.17149781029123E-08  -3.17147083869269E-08
     -5.22569820544721E-30
      2.75000000000000E-11
      9.99997779969904E-01   9.99997779966732E-01   0.00000000000000E+00  -2.17209320532387E-16   9.58513016424089E-09
      2.21295796193071E-08   3.17147095663386E-08   1.44369438937833E-27   0.00000000000000E+00   3.17146988246973E-12
      0.00000000000000E+00   2.39466154953712E-18   2.69713542544821E-13  -3.17149781105888E-08  -3.17147083946516E-08
      1.09352573558432E-29
      2.80000000000000E-11
      9.99997779970348E-01   9.99997779967172E-01   0.00000000000000E+00   1.22022621958997E-15   9.58512874603765E-09
      2.21295796082629E-08   3.17147095745268E-08   1.53322680897929E-27   0.00000000000000E+00   3.17147053100526E-12
      0.00000000000000E+00   5.63931598690656E-18   2.69710328140090E-13  -3.17149781024730E-08  -3.17147083865055E-08
      3.67734318161100E-30
      2.85000000000000E-11
      9.99997779970544E-01   9.99997779967370E-01   0.00000000000000E+00  -1.72221931899942E-15   9.58513166895699E-09
      2.21295796325507E-08   3.17147095792884E-08   2.30948341089523E-28   0.00000000000000E+00   3.17147094004827E-12
      0.00000000000000E+00   2.57561570812109E-18   2.69713443943449E-13  -3.17149780944034E-08  -3.17147083783838E-08
     -7.35468636322200E-30
      2.90000000000000E-11
      9.99997779969923E-01   9.99997779966748E-01   0.00000000000000E+00  -4.50871907870861E-16   9.58513039384406E-09
      2.21295796211968E-08   3.17147095641690E-08   5.97261317724835E-28   0.00000000000000E+00   3.17147021154579E-12
      0.00000000000000E+00  -5.50005334848149E-18   2.69721430654592E-13  -3.17149780875885E-08  -3.17147083716579E-08
      8.22563606412987E-30
      2.95000000000000E-11
      9.99997779970332E-01   9.99997779967165E-01   0.00000000000000E+00   3.77709809422452E-16   9.58512958223644E-09
      2.21295796150040E-08   3.17147095749503E-08   8.34191389746288E-29   0.00000000000000E+00   3.17147046370720E-12
      0.00000000000000E+00   4.69126809995234E-18   2.69711274713263E-13  -3.17149780816135E-08  -3.17147083656475E-08
     -1.02578520329149E-29
      3.00000000000000E-11
      9.99997779970587E-01   9.99997779967408E-01   0.00000000000000E+00  -2.29905933383219E-15   9.58513221694399E-09
      2.21295796340145E-08   3.17147095518991E-08  -1.41742225213306E-27   0.00000000000000E+00   3.17147142114536E-12
      0.00000000000000E+00   5.10636010760277E-18   2.69710584503658E-13  -3.17149781382447E-08  -3.17147084225539E-08
      5.22569820544721E-30
      3.05000000000000E-11
      9.99997779970031E-01   9.99997779966856E-01   0.00000000000000E+00   2.41932339710200E-15   9.58512755757559E-09
      2.21295795977732E-08   3.17147095746722E-08   1.64643514944279E-27   0.00000000000000E+00   3.17147015025121E-12
      0.00000000000000E+00   1.14502627851947E-19   2.69716007579125E-13  -3.17149781918298E-08  -3.17147084757077E-08
     -2.55478578932975E-29
      3.10000000000000E-11
      9.99997779970316E-01   9.99997779967138E-01   0.00000000000000E+00  -2.26115582310799E-15   9.58513219771671E-09
      2.21295796360219E-08   3.17147095725828E-08   2.09068753985118E-28   0.00000000000000E+00   3.17147081712059E-12
      0.00000000000000E+00   3.71118038776512E-18   2.69712319887807E-13  -3.17149780973221E-08  -3.17147083812910E-08
     -1.47093727264440E-29
      3.15000000000000E-11
      9.99997779969655E-01   9.99997779966479E-01   0.00000000000000E+00   1.63734590836451E-15   9.58512832041498E-09
      2.21295796035423E-08   3.17147095613032E-08   1.87167241931646E-27   0.00000000000000E+00   3.17146978310533E-12
      0.00000000000000E+00  -1.29149096503831E-18   2.69717407718609E-13  -3.17149780896849E-08  -3.17147083735686E-08
      1.49029171044235E-29
      3.20000000000000E-11
      9.99997779970179E-01   9.99997779967011E-01   0.00000000000000E+00  -1.59291208850379E-15   9.58513153438587E-09
      2.21295796303533E-08   3.17147095718271E-08  -4.57126115674941E-28   0.00000000000000E+00   3.17147052767697E-12
      0.00000000000000E+00   2.53003153929243E-18   2.69713365062352E-13  -3.17149780118792E-08  -3.17147082959841E-08
     -1.06449407888739E-30
      3.25000000000000E-11
      9.99997779970095E-01   9.99997779966929E-01   0.00000000000000E+00   2.46905079575785E-15   9.58512750336455E-09
      2.21295795977620E-08   3.17147095701774E-08   6.50008208986068E-28   0.00000000000000E+00   3.17147021315720E-12
      0.00000000000000E+00   3.73708097464104E-18   2.69712280447258E-13  -3.17149780383576E-08  -3.17147083223401E-08
     -3.10638726657140E-29
