DF-ISE text

Info {
  version   = 1.0
  type      = xyplot
  datasets  = [
    "time"
    "ntype OuterVoltage" "ntype InnerVoltage" "ntype QuasiFermiPotential" "ntype DisplacementCurrent" "ntype eCurrent"
    "ntype hCurrent" "ntype TotalCurrent" "ntype Charge" "ptype OuterVoltage" "ptype InnerVoltage"
    "ptype QuasiFermiPotential" "ptype DisplacementCurrent" "ptype eCurrent" "ptype hCurrent" "ptype TotalCurrent"
    "ptype Charge" ]
  functions = [
    Time
    OuterVoltage InnerVoltage QuasiFermiPotential DisplacementCurrent eCurrent
    hCurrent TotalCurrent Charge OuterVoltage InnerVoltage
    QuasiFermiPotential DisplacementCurrent eCurrent hCurrent TotalCurrent
    Charge ]
}

Data {
      1.00000000000000E-13
      9.99997739759547E-01   9.99997739756323E-01   0.00000000000000E+00  -2.08429727529057E-15   1.03653494120491E-08
      2.19238391615783E-08   3.22891864893301E-08   7.34818448177425E-28   0.00000000000000E+00   3.22890777593825E-12
      0.00000000000000E+00  -1.89869922572686E-17   2.78791168224890E-11  -3.23170662020125E-08  -3.22891871041771E-08
      1.90641212309833E-29
      2.30000000000000E-13
      9.99997739756423E-01   9.99997739753191E-01   0.00000000000000E+00   9.05513537072301E-16   1.03653465838265E-08
      2.19238391406827E-08   3.22891866300228E-08   1.97250450404744E-28   0.00000000000000E+00   3.22891676026458E-12
      0.00000000000000E+00  -3.46691560364659E-18   2.78791097823510E-11  -3.23170664185002E-08  -3.22891873121847E-08
     -5.41924258342674E-30
      3.99000000000000E-13
      9.99997739757278E-01   9.99997739754052E-01   0.00000000000000E+00  -8.62900776889929E-16   1.03653483561862E-08
      2.19238391589631E-08   3.22891866522485E-08   5.95582925072044E-28   0.00000000000000E+00   3.22891914376332E-12
      0.00000000000000E+00  -1.89257899697483E-19   2.78791065876666E-11  -3.23170663852379E-08  -3.22891872788395E-08
     -1.91608934199731E-29
      6.18700000000000E-13
      9.99997739756609E-01   9.99997739753377E-01   0.00000000000000E+00  -2.38160058563487E-15   1.03653498514957E-08
      2.19238391738587E-08   3.22891866437538E-08   5.32003596905770E-28   0.00000000000000E+00   3.22891772849629E-12
      0.00000000000000E+00   8.83217789125374E-18   2.78790978910256E-11  -3.23170663650373E-08  -3.22891872583141E-08
      4.35474850453934E-30
      9.04310000000000E-13
      9.99997739757276E-01   9.99997739754052E-01   0.00000000000000E+00   3.32204431086348E-16   1.03653471409637E-08
      2.19238391516313E-08   3.22891866247994E-08  -4.25644912944208E-28   0.00000000000000E+00   3.22891879493826E-12
      0.00000000000000E+00  -5.39617881799648E-19   2.78791065087855E-11  -3.23170664233809E-08  -3.22891873174118E-08
      1.64512721282597E-30
      1.27560300000000E-12
      9.99997739757498E-01   9.99997739754270E-01   0.00000000000000E+00   9.31045981344668E-16   1.03653465628639E-08
      2.19238391468973E-08   3.22891866408071E-08   2.01750357192768E-28   0.00000000000000E+00   3.22891983503395E-12
      0.00000000000000E+00  -9.06714957072338E-20   2.78791062721422E-11  -3.23170664797050E-08  -3.22891873735235E-08
      1.40319674035157E-29
      1.75828390000000E-12
      9.99997739757063E-01   9.99997739753834E-01   0.00000000000000E+00  -1.85526793355301E-15   1.03653493447833E-08
      2.19238391725074E-08   3.22891866620228E-08   1.90958746054956E-28   0.00000000000000E+00   3.22891883470966E-12
      0.00000000000000E+00   4.20549060408225E-18   2.78791024464089E-11  -3.23170664315818E-08  -3.22891873249299E-08
     -5.18698932985130E-29
      2.25828390000000E-12
      9.99997739756247E-01   9.99997739753021E-01   0.00000000000000E+00   1.41649545351859E-15   1.03653460762858E-08
      2.19238391447665E-08   3.22891866375478E-08   1.13591951468910E-27   0.00000000000000E+00   3.22891775240298E-12
      0.00000000000000E+00   1.49799576095075E-18   2.78791052466879E-11  -3.23170663236814E-08  -3.22891872169367E-08
     -2.20640590896660E-29
      2.75828390000000E-12
      9.99997739757176E-01   9.99997739753944E-01   0.00000000000000E+00  -8.83834136685725E-16   1.03653483806787E-08
      2.19238391652371E-08   3.22891866620817E-08   1.63732797921958E-27   0.00000000000000E+00   3.22891861800933E-12
      0.00000000000000E+00  -5.63989923615231E-18   2.78791118529798E-11  -3.23170662410286E-08  -3.22891871348155E-08
      9.96753546594560E-30
      3.25828390000000E-12
      9.99997739756695E-01   9.99997739753461E-01   0.00000000000000E+00   1.21210252967880E-15   1.03653462880815E-08
      2.19238391476251E-08   3.22891866478091E-08   1.14068554499685E-27   0.00000000000000E+00   3.22891829136115E-12
      0.00000000000000E+00  -3.38294499371827E-18   2.78791098612321E-11  -3.23170661902860E-08  -3.22891870838077E-08
      1.88705768530038E-29
      3.75828390000000E-12
      9.99997739757086E-01   9.99997739753864E-01   0.00000000000000E+00  -4.41139530132628E-17   1.03653475446574E-08
      2.19238391583458E-08   3.22891866588892E-08   6.98001166463179E-28   0.00000000000000E+00   3.22891862434278E-12
      0.00000000000000E+00  -4.72178715678161E-18   2.78791109064067E-11  -3.23170661188859E-08  -3.22891870127013E-08
      2.06124762548195E-29
      4.25828390000000E-12
      9.99997739756598E-01   9.99997739753364E-01   0.00000000000000E+00   1.18828886044854E-15   1.03653463111346E-08
      2.19238391473463E-08   3.22891866467698E-08   1.08919366806158E-27   0.00000000000000E+00   3.22891822961112E-12
      0.00000000000000E+00  -4.66181185285976E-18   2.78791112219311E-11  -3.23170660369813E-08  -3.22891869304212E-08
      1.31610177026078E-29
      4.75828390000000E-12
      9.99997739756678E-01   9.99997739753454E-01   0.00000000000000E+00  -6.03428027910453E-16   1.03653480929796E-08
      2.19238391620298E-08   3.22891866515814E-08   1.11008890055610E-27   0.00000000000000E+00   3.22891826972813E-12
      0.00000000000000E+00  -5.03112959563107E-18   2.78791114585744E-11  -3.23170659368412E-08  -3.22891868304137E-08
      2.00318431208810E-29
      5.00000000000000E-12
      9.99997739756792E-01   9.99997739753556E-01   0.00000000000000E+00   9.88473937705172E-16   1.03653465189468E-08
      2.19238391501247E-08   3.22891866575454E-08   9.39060689236679E-28   0.00000000000000E+00   3.22891783181860E-12
      0.00000000000000E+00   8.90628078801699E-18   2.78790976543822E-11  -3.23170659129980E-08  -3.22891868064373E-08
      3.87088755959053E-30
      5.50000000000000E-12
      9.99997739756576E-01   9.99997739753349E-01   0.00000000000000E+00   6.70570069584697E-16   1.03653468259126E-08
      2.19238391514750E-08   3.22891866479577E-08   1.30708532396475E-27   0.00000000000000E+00   3.22891817401437E-12
      0.00000000000000E+00   1.19725948874964E-18   2.78791053650096E-11  -3.23170658174637E-08  -3.22891867109015E-08
      9.19335795402750E-30
      6.00000000000000E-12
      9.99997739756517E-01   9.99997739753285E-01   0.00000000000000E+00   4.26469178504222E-16   1.03653470679395E-08
      2.19238391532268E-08   3.22891866476355E-08   8.64428162609230E-28   0.00000000000000E+00   3.22891809535488E-12
      0.00000000000000E+00  -1.32121075438267E-19   2.78791067059882E-11  -3.23170657295911E-08  -3.22891866230173E-08
     -1.07417129778637E-29
      6.50000000000000E-12
      9.99997739756854E-01   9.99997739753629E-01   0.00000000000000E+00   8.97016420751452E-16   1.03653466066626E-08
      2.19238391503631E-08   3.22891866540421E-08   1.55643398955140E-27   0.00000000000000E+00   3.22891831800153E-12
      0.00000000000000E+00  -4.39100274751260E-19   2.78791068045896E-11  -3.23170656881428E-08  -3.22891865817773E-08
     -1.68383608842188E-29
      7.00000000000000E-12
      9.99997739756822E-01   9.99997739753597E-01   0.00000000000000E+00  -1.97852418210336E-15   1.03653494578790E-08
      2.19238391736257E-08   3.22891866529806E-08   5.05967341871165E-28   0.00000000000000E+00   3.22891849418021E-12
      0.00000000000000E+00   5.31793701177081E-20   2.78791064101841E-11  -3.23170656363757E-08  -3.22891865299124E-08
     -1.80963993410857E-29
      7.50000000000000E-12
      9.99997739756341E-01   9.99997739753115E-01   0.00000000000000E+00   1.51534337782990E-15   1.03653459823581E-08
      2.19238391443705E-08   3.22891866420720E-08  -7.12920716287585E-28   0.00000000000000E+00   3.22891772470051E-12
      0.00000000000000E+00   6.02483509761527E-18   2.78791007504653E-11  -3.23170656053857E-08  -3.22891864986104E-08
      3.77411537060076E-30
      8.00000000000000E-12
      9.99997739756788E-01   9.99997739753555E-01   0.00000000000000E+00  -1.33813967174958E-16   1.03653476287841E-08
      2.19238391582343E-08   3.22891866532045E-08  -3.98154050943851E-28   0.00000000000000E+00   3.22891834331270E-12
      0.00000000000000E+00  -6.40438778455823E-18   2.78791127206719E-11  -3.23170655231931E-08  -3.22891864168769E-08
     -1.17094348677613E-29
      8.50000000000000E-12
      9.99997739756904E-01   9.99997739753677E-01   0.00000000000000E+00   1.55423311550464E-15   1.03653459547695E-08
      2.19238391451074E-08   3.22891866541099E-08   6.18207960444760E-28   0.00000000000000E+00   3.22891839048731E-12
      0.00000000000000E+00  -6.41305011594875E-18   2.78791126615111E-11  -3.23170655132562E-08  -3.22891864070078E-08
      1.73222218291676E-29
      9.00000000000000E-12
      9.99997739756841E-01   9.99997739753612E-01   0.00000000000000E+00  -1.30623889313677E-15   1.03653487914323E-08
      2.19238391679689E-08   3.22891866531624E-08   1.38998733655446E-27   0.00000000000000E+00   3.22891851873320E-12
      0.00000000000000E+00  -6.19419339712084E-19   2.78791071003937E-11  -3.23170654471462E-08  -3.22891863406652E-08
     -8.51595263109916E-30
      9.50000000000000E-12
      9.99997739756310E-01   9.99997739753081E-01   0.00000000000000E+00   7.25135425685984E-17   1.03653474131232E-08
      2.19238391560021E-08   3.22891866416388E-08   1.50332722671236E-27   0.00000000000000E+00   3.22891779131097E-12
      0.00000000000000E+00   7.97726410793323E-18   2.78790988375987E-11  -3.23170654060011E-08  -3.22891862991862E-08
     -1.45158283484645E-30
      1.00000000000000E-11
      9.99997739757314E-01   9.99997739754082E-01   0.00000000000000E+00  -7.77113725753204E-16   1.03653482486120E-08
      2.19238391613023E-08   3.22891866328006E-08  -3.29395898601171E-28   0.00000000000000E+00   3.22891915349504E-12
      0.00000000000000E+00  -6.90771460217811E-18   2.78791125826300E-11  -3.23170654768143E-08  -3.22891863711394E-08
     -5.80633133938579E-31
      1.05000000000000E-11
      9.99997739756773E-01   9.99997739753548E-01   0.00000000000000E+00  -1.86658580740015E-15   1.03653493526713E-08
      2.19238391724959E-08   3.22891866585815E-08   9.87972982509192E-28   0.00000000000000E+00   3.22891833289857E-12
      0.00000000000000E+00  -7.34913059245322E-18   2.78791137855667E-11  -3.23170655072171E-08  -3.22891864007807E-08
     -1.60641833723007E-29
      1.10000000000000E-11
      9.99997739756419E-01   9.99997739753189E-01   0.00000000000000E+00  -7.66695088311696E-17   1.03653475591321E-08
      2.19238391573587E-08   3.22891866398213E-08   4.87152711439921E-28   0.00000000000000E+00   3.22891780060663E-12
      0.00000000000000E+00   5.52555214143256E-18   2.78791012237519E-11  -3.23170654588802E-08  -3.22891863521309E-08
      3.80314702729769E-29
      1.15000000000000E-11
      9.99997739756676E-01   9.99997739753453E-01   0.00000000000000E+00   2.19270929481144E-15   1.03653453192245E-08
      2.19238391391539E-08   3.22891866510876E-08  -7.12069423437566E-28   0.00000000000000E+00   3.22891800377180E-12
      0.00000000000000E+00   2.76127474395408E-19   2.78791060354989E-11  -3.23170654099277E-08  -3.22891863036160E-08
      2.22576034676455E-30
      1.20000000000000E-11
      9.99997739757052E-01   9.99997739753830E-01   0.00000000000000E+00  -1.32107604108836E-15   1.03653488090228E-08
      2.19238391683355E-08   3.22891866562822E-08   1.27336928849453E-27   0.00000000000000E+00   3.22891872856714E-12
      0.00000000000000E+00  -6.06551565241487E-18   2.78791122868259E-11  -3.23170653433028E-08  -3.22891862370815E-08
     -1.75157662071471E-29
      1.25000000000000E-11
      9.99997739756726E-01   9.99997739753501E-01   0.00000000000000E+00  -4.62993408450979E-16   1.03653479513684E-08
      2.19238391613083E-08   3.22891866496832E-08  -3.41273172734212E-29   0.00000000000000E+00   3.22891813453052E-12
      0.00000000000000E+00  -9.81926891475469E-18   2.78791160533983E-11  -3.23170653514658E-08  -3.22891862452316E-08
      1.83867159080550E-30
      1.30000000000000E-11
      9.99997739756753E-01   9.99997739753521E-01   0.00000000000000E+00  -4.84549808052175E-16   1.03653479722719E-08
      2.19238391611227E-08   3.22891866488447E-08  -7.74296965088889E-28   0.00000000000000E+00   3.22891816516615E-12
      0.00000000000000E+00  -1.98321160939902E-18   2.78791083427710E-11  -3.23170653117739E-08  -3.22891862054144E-08
     -1.74189940181574E-29
      1.35000000000000E-11
      9.99997739756389E-01   9.99997739753162E-01   0.00000000000000E+00   4.03537304366965E-16   1.03653470872456E-08
      2.19238391532310E-08   3.22891866440140E-08   5.41951475520827E-28   0.00000000000000E+00   3.22891784605798E-12
      0.00000000000000E+00   3.65424230028594E-18   2.78791031563388E-11  -3.23170652515991E-08  -3.22891861447886E-08
     -4.54829288251887E-30
      1.40000000000000E-11
      9.99997739756644E-01   9.99997739753411E-01   0.00000000000000E+00   1.70684352524810E-15   1.03653457980919E-08
      2.19238391428947E-08   3.22891866478301E-08   1.65513254992824E-27   0.00000000000000E+00   3.22891809491800E-12
      0.00000000000000E+00  -9.53482473815142E-18   2.78791156787131E-11  -3.23170651877360E-08  -3.22891860815921E-08
      3.17412779886423E-29
      1.45000000000000E-11
      9.99997739756833E-01   9.99997739753600E-01   0.00000000000000E+00   2.17296304164716E-15   1.03653453417253E-08
      2.19238391394926E-08   3.22891866541810E-08   1.63387290965955E-27   0.00000000000000E+00   3.22891843114598E-12
      0.00000000000000E+00  -6.27865652863447E-18   2.78791125234692E-11  -3.23170651333115E-08  -3.22891860270667E-08
     -1.05481685998842E-29
      1.50000000000000E-11
      9.99997739757256E-01   9.99997739754023E-01   0.00000000000000E+00   1.59754923539410E-15   1.03653459022544E-08
      2.19238391429233E-08   3.22891866427269E-08   1.41702004272257E-27   0.00000000000000E+00   3.22891927689083E-12
      0.00000000000000E+00   4.96195623508557E-18   2.78791012040316E-11  -3.23170651477662E-08  -3.22891860416003E-08
     -4.54829288251887E-30
      1.55000000000000E-11
      9.99997739756789E-01   9.99997739753555E-01   0.00000000000000E+00  -1.43607974916824E-16   1.03653476429038E-08
      2.19238391582801E-08   3.22891866575760E-08  -5.90848648138811E-28   0.00000000000000E+00   3.22891850943910E-12
      0.00000000000000E+00  -5.39706449277705E-18   2.78791118727001E-11  -3.23170651307968E-08  -3.22891860243211E-08
      1.89673490419936E-29
      1.60000000000000E-11
      9.99997739756580E-01   9.99997739753350E-01   0.00000000000000E+00  -1.50322525145468E-15   1.03653489786172E-08
      2.19238391690905E-08   3.22891866444824E-08  -1.37747650699663E-28   0.00000000000000E+00   3.22891809625780E-12
      0.00000000000000E+00   4.50285699175239E-19   2.78791059960583E-11  -3.23170650879999E-08  -3.22891859815535E-08
     -1.71286774511881E-29
      1.65000000000000E-11
      9.99997739756449E-01   9.99997739753222E-01   0.00000000000000E+00  -1.72348530685114E-15   1.03653491981038E-08
      2.19238391708857E-08   3.22891866455042E-08   1.25342968136628E-27   0.00000000000000E+00   3.22891772747915E-12
      0.00000000000000E+00   5.66180780596845E-18   2.78791010068289E-11  -3.23170650779896E-08  -3.22891859713210E-08
      1.56770946163416E-29
      1.70000000000000E-11
      9.99997739756444E-01   9.99997739753219E-01   0.00000000000000E+00   6.12349460217765E-16   1.03653468783882E-08
      2.19238391516345E-08   3.22891866423722E-08  -3.57343404368324E-28   0.00000000000000E+00   3.22891773809912E-12
      0.00000000000000E+00   4.60418250701525E-18   2.78791019139615E-11  -3.23170650517477E-08  -3.22891859452296E-08
     -4.35474850453934E-30
      1.75000000000000E-11
      9.99997739756872E-01   9.99997739753645E-01   0.00000000000000E+00   8.13831114889057E-16   1.03653466900596E-08
      2.19238391506866E-08   3.22891866545773E-08   1.15965440610430E-27   0.00000000000000E+00   3.22891828397326E-12
      0.00000000000000E+00  -5.05000958973412E-18   2.78791113008122E-11  -3.23170650232942E-08  -3.22891859170434E-08
     -7.35468636322200E-30
      1.80000000000000E-11
      9.99997739757010E-01   9.99997739753785E-01   0.00000000000000E+00  -1.16701990767747E-15   1.03653486540017E-08
      2.19238391671369E-08   3.22891866541188E-08   1.67539573906343E-27   0.00000000000000E+00   3.22891857967086E-12
      0.00000000000000E+00  -3.79040291679660E-18   2.78791100584349E-11  -3.23170650057458E-08  -3.22891858994778E-08
     -2.22576034676455E-30
      1.85000000000000E-11
      9.99997739756445E-01   9.99997739753221E-01   0.00000000000000E+00  -1.78378009742835E-15   1.03653492563378E-08
      2.19238391712652E-08   3.22891866438229E-08  -2.12871598599326E-28   0.00000000000000E+00   3.22891785204465E-12
      0.00000000000000E+00   5.51330390727189E-18   2.78791012040316E-11  -3.23170649865595E-08  -3.22891858798422E-08
      1.24836123796794E-29
      1.90000000000000E-11
      9.99997739756359E-01   9.99997739753129E-01   0.00000000000000E+00  -8.81341891056827E-16   1.03653483584934E-08
      2.19238391635458E-08   3.22891866406973E-08  -1.91484944832588E-28   0.00000000000000E+00   3.22891759919187E-12
      0.00000000000000E+00  -1.01355757816348E-19   2.78791066468274E-11  -3.23170649525041E-08  -3.22891858459586E-08
     -1.63544999392700E-29
      1.95000000000000E-11
      9.99997739756706E-01   9.99997739753474E-01   0.00000000000000E+00  -8.16392745576375E-16   1.03653483024484E-08
      2.19238391638334E-08   3.22891866498890E-08   5.28374639818654E-28   0.00000000000000E+00   3.22891796705810E-12
      0.00000000000000E+00   2.97696463539583E-18   2.78791034718632E-11  -3.23170649382104E-08  -3.22891858317616E-08
      8.03209168615034E-30
      2.00000000000000E-11
      9.99997739756827E-01   9.99997739753598E-01   0.00000000000000E+00  -8.55384815411369E-16   1.03653483380238E-08
      2.19238391638979E-08   3.22891866465369E-08   4.72848572254871E-28   0.00000000000000E+00   3.22891823359664E-12
      0.00000000000000E+00  -7.21371307868529E-19   2.78791070609532E-11  -3.23170649396022E-08  -3.22891858332626E-08
      3.06767839097549E-29
      2.05000000000000E-11
      9.99997739756410E-01   9.99997739753178E-01   0.00000000000000E+00  -1.38813546010649E-15   1.03653488643776E-08
      2.19238391677764E-08   3.22891866440186E-08   8.16793564644472E-28   0.00000000000000E+00   3.22891781898880E-12
      0.00000000000000E+00   1.05244690972393E-17   2.78790963528441E-11  -3.23170649034661E-08  -3.22891857965888E-08
     -1.37416508365464E-29
      2.10000000000000E-11
      9.99997739756873E-01   9.99997739753645E-01   0.00000000000000E+00  -9.94751302444736E-16   1.03653484795956E-08
      2.19238391654574E-08   3.22891866503017E-08  -3.89423385018431E-28   0.00000000000000E+00   3.22891808763371E-12
      0.00000000000000E+00  -7.54464438035693E-18   2.78791137461262E-11  -3.23170649094960E-08  -3.22891858032945E-08
     -2.37091863024920E-29
      2.15000000000000E-11
      9.99997739756386E-01   9.99997739753159E-01   0.00000000000000E+00   4.34878517973769E-16   1.03653470545691E-08
      2.19238391528961E-08   3.22891866423438E-08   1.71575881426488E-27   0.00000000000000E+00   3.22891778289002E-12
      0.00000000000000E+00  -2.43889344418860E-18   2.78791089935401E-11  -3.23170648697880E-08  -3.22891857632334E-08
     -9.09658576503773E-30
      2.20000000000000E-11
      9.99997739757117E-01   9.99997739753884E-01   0.00000000000000E+00   1.99953942145253E-15   1.03653455152637E-08
      2.19238391413180E-08   3.22891866561211E-08   5.21444843847715E-28   0.00000000000000E+00   3.22891844407881E-12
      0.00000000000000E+00  -8.34872475163706E-18   2.78791144363358E-11  -3.23170648569607E-08  -3.22891857508731E-08
      3.38702661464171E-30
      2.25000000000000E-11
      9.99997739756995E-01   9.99997739753770E-01   0.00000000000000E+00   2.96474526127191E-16   1.03653472036742E-08
      2.19238391549688E-08   3.22891866551175E-08  -3.10271294752069E-28   0.00000000000000E+00   3.22891866359048E-12
      0.00000000000000E+00  -5.22120404427260E-18   2.78791115374554E-11  -3.23170648195720E-08  -3.22891857132557E-08
     -1.09352573558432E-29
      2.30000000000000E-11
      9.99997739756723E-01   9.99997739753500E-01   0.00000000000000E+00  -1.37130765655698E-15   1.03653488507312E-08
      2.19238391680417E-08   3.22891866474653E-08  -3.15914323022535E-28   0.00000000000000E+00   3.22891827523841E-12
      0.00000000000000E+00  -1.72264176858829E-18   2.78791081061277E-11  -3.23170647874533E-08  -3.22891856810698E-08
      4.74183726049839E-30
      2.35000000000000E-11
      9.99997739756600E-01   9.99997739753367E-01   0.00000000000000E+00   1.67391428811899E-15   1.03653458290921E-08
      2.19238391431257E-08   3.22891866461321E-08   1.25788725032162E-29   0.00000000000000E+00   3.22891788747402E-12
      0.00000000000000E+00   1.09242151691794E-18   2.78791054833312E-11  -3.23170647822562E-08  -3.22891856756804E-08
     -3.58057099262124E-30
      2.40000000000000E-11
      9.99997739756824E-01   9.99997739753598E-01   0.00000000000000E+00   1.52537831935464E-15   1.03653459814904E-08
      2.19238391444005E-08   3.22891866512692E-08  -6.26131183418297E-29   0.00000000000000E+00   3.22891842527466E-12
      0.00000000000000E+00  -9.89482345408514E-18   2.78791160731186E-11  -3.23170647153059E-08  -3.22891856091276E-08
      1.19997514347306E-29
      2.45000000000000E-11
      9.99997739757129E-01   9.99997739753897E-01   0.00000000000000E+00   5.67909885631149E-16   1.03653469369180E-08
      2.19238391530310E-08   3.22891866578589E-08   1.08713725904555E-27   0.00000000000000E+00   3.22891865707134E-12
      0.00000000000000E+00  -6.18066201461953E-18   2.78791123854272E-11  -3.23170647065836E-08  -3.22891856003788E-08
      1.63544999392700E-29
      2.50000000000000E-11
      9.99997739757144E-01   9.99997739753915E-01   0.00000000000000E+00   1.67011813047630E-15   1.03653458386368E-08
      2.19238391438216E-08   3.22891866525765E-08   5.19185818060985E-28   0.00000000000000E+00   3.22891876466291E-12
      0.00000000000000E+00  -1.28691569873279E-18   2.78791074947992E-11  -3.23170647251320E-08  -3.22891856189241E-08
      9.58044670998655E-30
      2.55000000000000E-11
      9.99997739757108E-01   9.99997739753880E-01   0.00000000000000E+00  -5.87652267748590E-16   1.03653480829420E-08
      2.19238391622914E-08   3.22891866575812E-08   1.86457024788388E-27   0.00000000000000E+00   3.22891875613258E-12
      0.00000000000000E+00  -4.91687754893656E-19   2.78791068637504E-11  -3.23170647079788E-08  -3.22891856016067E-08
     -7.35468636322200E-30
      2.60000000000000E-11
      9.99997739756453E-01   9.99997739753223E-01   0.00000000000000E+00  -6.69586335484633E-16   1.03653481491232E-08
      2.19238391617583E-08   3.22891866412952E-08   7.06984347319244E-28   0.00000000000000E+00   3.22891797558880E-12
      0.00000000000000E+00   6.53894554573428E-18   2.78791001588571E-11  -3.23170646718519E-08  -3.22891855651541E-08
     -1.67415886952290E-29
      2.65000000000000E-11
      9.99997739756909E-01   9.99997739753680E-01   0.00000000000000E+00   2.02344723143141E-15   1.03653454882469E-08
      2.19238391407723E-08   3.22891866524665E-08   8.84577946835442E-28   0.00000000000000E+00   3.22891812119915E-12
      0.00000000000000E+00  -2.29702130543442E-18   2.78791085399737E-11  -3.23170646769866E-08  -3.22891855707436E-08
      1.09352573558432E-29
      2.70000000000000E-11
      9.99997739756871E-01   9.99997739753645E-01   0.00000000000000E+00  -1.29551138417617E-15   1.03653487795213E-08
      2.19238391674695E-08   3.22891866514794E-08   5.69260889666829E-28   0.00000000000000E+00   3.22891853811147E-12
      0.00000000000000E+00  -1.00588720252720E-17   2.78791162308808E-11  -3.23170646145606E-08  -3.22891855083886E-08
     -7.25791417423224E-30
      2.75000000000000E-11
      9.99997739756672E-01   9.99997739753444E-01   0.00000000000000E+00  -2.03338460183788E-15   1.03653495065881E-08
      2.19238391735398E-08   3.22891866467433E-08  -7.76853867769853E-29   0.00000000000000E+00   3.22891798569019E-12
      0.00000000000000E+00  -8.05885851723074E-18   2.78791143377344E-11  -3.23170646273652E-08  -3.22891855210863E-08
     -1.35481064585668E-29
      2.80000000000000E-11
      9.99997739756526E-01   9.99997739753300E-01   0.00000000000000E+00  -1.59355441009721E-16   1.03653476439885E-08
      2.19238391579713E-08   3.22891866426044E-08   9.36499250359356E-28   0.00000000000000E+00   3.22891774340615E-12
      0.00000000000000E+00  -2.17163135832854E-19   2.78791066468274E-11  -3.23170646237200E-08  -3.22891855172903E-08
     -5.80633133938579E-31
      2.85000000000000E-11
      9.99997739756939E-01   9.99997739753706E-01   0.00000000000000E+00   1.34951485091520E-15   1.03653461570206E-08
      2.19238391462645E-08   3.22891866528000E-08   1.39936063029739E-27   0.00000000000000E+00   3.22891821334905E-12
      0.00000000000000E+00  -8.81968771666520E-18   2.78791149490629E-11  -3.23170646154916E-08  -3.22891855093623E-08
      5.90310352837555E-30
      2.90000000000000E-11
      9.99997739757087E-01   9.99997739753864E-01   0.00000000000000E+00  -1.36979716630107E-15   1.03653488559768E-08
      2.19238391685289E-08   3.22891866547085E-08   1.52093069271578E-27   0.00000000000000E+00   3.22891863208903E-12
      0.00000000000000E+00  -2.10600069690534E-18   2.78791084808129E-11  -3.23170645906401E-08  -3.22891854842653E-08
      1.65480443172495E-29
      2.95000000000000E-11
      9.99997739756626E-01   9.99997739753397E-01   0.00000000000000E+00  -1.57604918199041E-15   1.03653490513652E-08
      2.19238391696491E-08   3.22891866449652E-08   9.67712817504914E-28   0.00000000000000E+00   3.22891796445771E-12
      0.00000000000000E+00   1.18636784913092E-17   2.78790948738235E-11  -3.23170645943778E-08  -3.22891854876403E-08
      3.96765974858029E-30
      3.00000000000000E-11
      9.99997739756995E-01   9.99997739753770E-01   0.00000000000000E+00  -2.16776146502009E-15   1.03653496206896E-08
      2.19238391719315E-08   3.22891866248596E-08   8.08837076230970E-28   0.00000000000000E+00   3.22891866724183E-12
      0.00000000000000E+00  -5.83398730367753E-18   2.78791117938190E-11  -3.23170646709221E-08  -3.22891855649623E-08
      4.25797631554958E-30
      3.05000000000000E-11
      9.99997739756300E-01   9.99997739753077E-01   0.00000000000000E+00  -2.72660053309082E-16   1.03653477607127E-08
      2.19238391580965E-08   3.22891866461492E-08   5.65045251183962E-28   0.00000000000000E+00   3.22891751790152E-12
      0.00000000000000E+00  -1.18223758039808E-18   2.78791078892047E-11  -3.23170646850523E-08  -3.22891855783453E-08
      8.32240825311963E-30
      3.10000000000000E-11
      9.99997739756557E-01   9.99997739753321E-01   0.00000000000000E+00  -7.96202324349446E-16   1.03653482756091E-08
      2.19238391626202E-08   3.22891866420270E-08   4.57126115674941E-28   0.00000000000000E+00   3.22891785715949E-12
      0.00000000000000E+00   5.99700762804600E-18   2.78791005729829E-11  -3.23170646144419E-08  -3.22891855078719E-08
      8.03209168615034E-30
      3.15000000000000E-11
      9.99997739756489E-01   9.99997739753265E-01   0.00000000000000E+00  -2.34157047039412E-15   1.03653498111677E-08
      2.19238391754782E-08   3.22891866450755E-08  -5.51427589714559E-28   0.00000000000000E+00   3.22891775131012E-12
      0.00000000000000E+00   3.69959748978108E-18   2.78791028013739E-11  -3.23170645867598E-08  -3.22891854802588E-08
     -2.00318431208810E-29
      3.20000000000000E-11
      9.99997739756810E-01   9.99997739753585E-01   0.00000000000000E+00   6.29401793125069E-16   1.03653468653926E-08
      2.19238391520377E-08   3.22891866468321E-08   1.04072743409769E-27   0.00000000000000E+00   3.22891788883399E-12
      0.00000000000000E+00   3.82844372871360E-18   2.78791024858495E-11  -3.23170646133861E-08  -3.22891855070718E-08
      8.70949700907868E-30
      3.25000000000000E-11
      9.99997739757008E-01   9.99997739753783E-01   0.00000000000000E+00  -6.20523205875313E-16   1.03653481127985E-08
      2.19238391623293E-08   3.22891866546046E-08  -9.69233955350596E-30   0.00000000000000E+00   3.22891837878937E-12
      0.00000000000000E+00   1.25039133485473E-18   2.78791050889257E-11  -3.23170645982359E-08  -3.22891854918966E-08
      1.09352573558432E-29
      3.30000000000000E-11
      9.99997739756595E-01   9.99997739753364E-01   0.00000000000000E+00   6.91339808525419E-16   1.03653468007692E-08
      2.19238391508094E-08   3.22891866429185E-08   3.40556453709506E-28   0.00000000000000E+00   3.22891806737658E-12
      0.00000000000000E+00  -4.16533713378621E-18   2.78791105711620E-11  -3.23170645647206E-08  -3.22891854583148E-08
     -1.19029792457409E-29
      3.35000000000000E-11
      9.99997739757094E-01   9.99997739753867E-01   0.00000000000000E+00   1.41494363897353E-15   1.03653460956117E-08
      2.19238391458568E-08   3.22891866564121E-08   9.86306686380025E-28   0.00000000000000E+00   3.22891846507564E-12
      0.00000000000000E+00  -4.58906123027368E-18   2.78791108275256E-11  -3.23170645519160E-08  -3.22891854456775E-08
     -2.17737425226967E-29
      3.40000000000000E-11