DF-ISE text

Info {
  version   = 1.0
  type      = xyplot
  datasets  = [
    "time"
    "ntype OuterVoltage" "ntype InnerVoltage" "ntype QuasiFermiPotential" "ntype DisplacementCurrent" "ntype eCurrent"
    "ntype hCurrent" "ntype TotalCurrent" "ntype Charge" "ptype OuterVoltage" "ptype InnerVoltage"
    "ptype QuasiFermiPotential" "ptype DisplacementCurrent" "ptype eCurrent" "ptype hCurrent" "ptype TotalCurrent"
    "ptype Charge" ]
  functions = [
    Time
    OuterVoltage InnerVoltage QuasiFermiPotential DisplacementCurrent eCurrent
    hCurrent TotalCurrent Charge OuterVoltage InnerVoltage
    QuasiFermiPotential DisplacementCurrent eCurrent hCurrent TotalCurrent
    Charge ]
}

Data {
      1.00000000000000E-15
     -5.86958448243805E-09  -5.86959284631512E-09   0.00000000000000E+00  -1.21541949631877E-13   1.21544701845752E-13
      2.48958774967191E-22   2.75246283375388E-18  -6.37486794970065E-30   0.00000000000000E+00   1.15265145195446E-12
      0.00000000000000E+00  -2.67587580560587E-09   2.67587580285343E-09   1.34481564817909E-24  -2.75243925622462E-18
     -1.88125135396100E-28
      2.30000000000000E-15
     -4.83132955867013E-09  -4.83133644843817E-09   0.00000000000000E+00  -3.25722243608131E-13   3.25770760636154E-13
      2.11159816418596E-22   4.85172391823988E-17  -9.85866675333212E-31   0.00000000000000E+00   1.02866105672430E-14
      0.00000000000000E+00  -1.77156794116254E-09   1.77156789264528E-09  -2.81043359892711E-25  -4.85172631003954E-17
     -2.94961632040798E-28
      3.99000000000000E-15
     -4.11372979186406E-09  -4.11373567579556E-09   0.00000000000000E+00  -5.45514193976535E-13   5.45879584862602E-13
      2.49499204227986E-22   3.65391135566993E-16  -4.32450719548004E-29   0.00000000000000E+00  -7.29247213427762E-14
      0.00000000000000E+00  -1.19732633167713E-09   1.19732596628599E-09  -1.69535760717268E-25  -3.65391143791181E-16
      3.91346732274602E-28
      6.18700000000000E-15
     -2.91317174920464E-09  -2.91317589648469E-09   0.00000000000000E+00  -7.72306049808069E-13   7.73428349418084E-13
      6.04850038018202E-23   1.12229967049985E-15  -1.98262022192777E-29   0.00000000000000E+00   3.85747896271612E-14
      0.00000000000000E+00  -5.23241905320778E-10   5.23240783021083E-10  -6.09854501152966E-26  -1.12229969480227E-15
      3.41025193999925E-28
      9.04310000000000E-15
     -2.17185944793818E-09  -2.17186253478392E-09   0.00000000000000E+00  -9.78798367106623E-13   9.81314497410725E-13
      7.77655179901351E-23   2.51613038186778E-15   2.03584492587214E-29   0.00000000000000E+00  -2.16753579809763E-14
      0.00000000000000E+00  -2.30330445299535E-10   2.30327929169176E-10  -2.06850026554373E-25  -2.51613035850481E-15
     -2.01092608720728E-28
      1.27560300000000E-14
     -1.78246646269429E-09  -1.78246899943597E-09   0.00000000000000E+00  -1.17980447672108E-12   1.18454243399238E-12
      2.36541878747564E-22   4.73795750784924E-15   2.66607380666797E-29   0.00000000000000E+00  -4.02279948968967E-14
      0.00000000000000E+00  -1.72571295348346E-10   1.72566557390823E-10   1.76452581605762E-25  -4.73795752286721E-15
     -2.77929726778600E-28
      1.75828390000000E-14
     -1.52477730109485E-09  -1.52477946253373E-09   0.00000000000000E+00  -1.38633169652458E-12   1.39434393856511E-12
      1.18798211093795E-23   8.01224205241164E-15  -5.34061517987255E-30   0.00000000000000E+00  -6.30054897243633E-14
      0.00000000000000E+00  -2.11242370772404E-10   2.11234358530359E-10  -7.77309292786096E-26  -8.01224204432854E-15
      4.04894838733169E-28
      2.38576907000000E-14
     -6.39085819430854E-10  -6.39086725011147E-10   0.00000000000000E+00  -1.56702007586036E-12   1.57955922797390E-12
     -9.07321432035180E-23   1.25391520228071E-14  -5.43194393323164E-29   0.00000000000000E+00   1.28582632090537E-14
      0.00000000000000E+00   4.46471331090137E-11  -4.46596722610334E-11  -2.88309884532754E-26  -1.25391520196773E-14
     -3.07542016609467E-28
      3.20149979100000E-14
     -7.71445770164460E-11  -7.71446885220662E-11   0.00000000000000E+00  -1.63074923533547E-12   1.64874656175533E-12
     -6.91287686012038E-23   1.79973263507359E-14  -6.74199744168056E-29   0.00000000000000E+00   1.48788474276193E-14
      0.00000000000000E+00   7.43249153602065E-11  -7.43429126865589E-11  -5.98626899115052E-26  -1.79973263524715E-14
     -1.30642455136180E-28
      4.26194972830000E-14
      2.40705571677160E-10   2.40705906593220E-10   0.00000000000000E+00  -1.58792144620138E-12   1.61135390185800E-12
      1.18817785442614E-23   2.34324556685044E-14  -1.93725825833882E-29   0.00000000000000E+00   1.87363263903355E-14
      0.00000000000000E+00   6.34538036677191E-11  -6.34772361234126E-11   3.91021842075010E-26  -2.34324556934802E-14
     -1.52706514225846E-28
      5.64053464679000E-14
      2.68531498200302E-10   2.68531877013141E-10   0.00000000000000E+00  -1.45868472580459E-12   1.48636626887373E-12
     -1.87395308351572E-22   2.76815428817423E-14  -3.76322849933941E-29   0.00000000000000E+00   6.06175265569677E-15
      0.00000000000000E+00   2.32886527872184E-11  -2.33163343300872E-11   1.35329944059053E-27  -2.76815428687563E-14
     -5.63214139920421E-28
      7.43269504082700E-14
      6.52875566937642E-11   6.52876477544960E-11   0.00000000000000E+00  -1.32110907947706E-12   1.35107419715435E-12
     -1.99785585553430E-23   2.99651176573072E-14  -1.66145751971800E-29   0.00000000000000E+00  -5.51068423245161E-15
      0.00000000000000E+00  -4.42208998465950E-11   4.41909347289129E-11  -2.21985110928825E-26  -2.99651176820990E-14
     -2.33027431087350E-28
      9.76250355307510E-14
      1.49469951320316E-10   1.49470168876932E-10   0.00000000000000E+00  -1.16418619794890E-12   1.19452993649256E-12
      8.26212384011218E-23   3.03437386262783E-14  -2.02798218551672E-29   0.00000000000000E+00  -2.57165264181075E-15
      0.00000000000000E+00  -2.92796478378067E-14  -1.06409075964200E-15  -1.86360731174252E-27  -3.03437385974506E-14
     -2.69026685391542E-28
      1.27912546189976E-13
      2.56907549249351E-10   2.56907915227419E-10   0.00000000000000E+00  -9.31731978937069E-13   9.60316648723310E-13
     -2.40325793111398E-22   2.85846695459148E-14   3.70697966448911E-29   0.00000000000000E+00   3.49010001388602E-15
      0.00000000000000E+00   2.64698294282977E-11  -2.64984140978263E-11   5.25741800300868E-27  -2.85846695286619E-14
     -1.48061449154338E-28
      1.67286310046969E-13
     -1.46730706310451E-10  -1.46730922550902E-10   0.00000000000000E+00  -7.76338432174754E-13   8.01852581666647E-13
     -2.57600174381034E-22   2.55141492342924E-14   7.62201953530622E-29   0.00000000000000E+00  -8.44971582309246E-15
      0.00000000000000E+00  -7.41860774834611E-11   7.41605633341954E-11   1.33332602584132E-26  -2.55141492656957E-14
      2.67284785989726E-28
      2.17286310046969E-13
      1.66587936140332E-10   1.66588168036486E-10   0.00000000000000E+00  -5.85491023876421E-13   6.08606413155267E-13
     -1.18828361574954E-23   2.31153892669625E-14  -4.56462318941089E-29   0.00000000000000E+00  -1.10213684649032E-15
      0.00000000000000E+00   9.23071231584072E-12  -9.25382770507430E-12  -7.24756518591317E-28  -2.31153892335831E-14
      1.83286525946611E-28
