DF-ISE text

Info {
  version   = 1.0
  type      = xyplot
  datasets  = [
    "time"
    "ntype OuterVoltage" "ntype InnerVoltage" "ntype QuasiFermiPotential" "ntype DisplacementCurrent" "ntype eCurrent"
    "ntype hCurrent" "ntype TotalCurrent" "ntype Charge" "ptype OuterVoltage" "ptype InnerVoltage"
    "ptype QuasiFermiPotential" "ptype DisplacementCurrent" "ptype eCurrent" "ptype hCurrent" "ptype TotalCurrent"
    "ptype Charge" ]
  functions = [
    Time
    OuterVoltage InnerVoltage QuasiFermiPotential DisplacementCurrent eCurrent
    hCurrent TotalCurrent Charge OuterVoltage InnerVoltage
    QuasiFermiPotential DisplacementCurrent eCurrent hCurrent TotalCurrent
    Charge ]
}

Data {
      1.00000000000000E-13
      9.99997780378148E-01   9.99997780374978E-01   0.00000000000000E+00   7.90789257225512E-16   9.57727629774135E-09
      2.21316388057043E-08   3.17089158942349E-08   1.03894773305955E-27   0.00000000000000E+00   3.17087983254097E-12
      0.00000000000000E+00  -9.35169311571666E-18  -9.18183865348506E-15  -3.17089072951758E-08  -3.17089164863662E-08
     -1.75157662071471E-29
      2.30000000000000E-13
      9.99997780375222E-01   9.99997780372050E-01   0.00000000000000E+00  -1.89137337325986E-15   9.57727908703610E-09
      2.21316388295722E-08   3.17089160252350E-08   2.51223626748331E-28   0.00000000000000E+00   3.17089188062711E-12
      0.00000000000000E+00   2.62545543626130E-18  -9.18456005135575E-15  -3.17089074376173E-08  -3.17089166195519E-08
     -3.60960264931817E-29
      3.99000000000000E-13
      9.99997780375037E-01   9.99997780371863E-01   0.00000000000000E+00  -1.22252230337624E-16   9.57727733889291E-09
      2.21316388160401E-08   3.17089160326808E-08   1.60613104479400E-28   0.00000000000000E+00   3.17088866839723E-12
      0.00000000000000E+00   3.04684653576580E-18  -9.18623627468189E-15  -3.17089074236691E-08  -3.17089166068586E-08
     -6.87082541827318E-30
      6.18700000000000E-13
      9.99997780375405E-01   9.99997780372237E-01   0.00000000000000E+00   2.56617480379296E-16   9.57727697304241E-09
      2.21316388150633E-08   3.17089160447232E-08  -1.28428791313039E-28   0.00000000000000E+00   3.17089031537796E-12
      0.00000000000000E+00  -2.16562605127974E-19  -9.18264718473650E-15  -3.17089073578553E-08  -3.17089165407191E-08
     -1.84834880970448E-29
      9.04310000000000E-13
      9.99997780376822E-01   9.99997780373649E-01   0.00000000000000E+00   8.34210068194400E-16   9.57727639482422E-09
      2.21316388105805E-08   3.17089160396148E-08  -1.21855691582455E-27   0.00000000000000E+00   3.17089309462923E-12
      0.00000000000000E+00   2.59699719343367E-18  -9.18601935166322E-15  -3.17089074060439E-08  -3.17089165894663E-08
      4.54829288251887E-30
      1.27560300000000E-12
      9.99997780376569E-01   9.99997780373400E-01   0.00000000000000E+00   7.52600114224401E-17   9.57727715129398E-09
      2.21316388164979E-08   3.17089160430519E-08  -6.70026443517873E-28   0.00000000000000E+00   3.17089332497803E-12
      0.00000000000000E+00  -2.63604897070997E-18  -9.18047795454972E-15  -3.17089074936787E-08  -3.17089166767927E-08
      9.96753546594560E-30
      1.75828390000000E-12
      9.99997780375693E-01   9.99997780372520E-01   0.00000000000000E+00  -1.80558866376085E-15   9.57727902718507E-09
      2.21316388340206E-08   3.17089160556170E-08   5.71007325265003E-28   0.00000000000000E+00   3.17089148170156E-12
      0.00000000000000E+00   1.53375109989739E-18  -9.18398816339742E-15  -3.17089074516388E-08  -3.17089166340932E-08
      9.77399108796608E-30
      2.25828390000000E-12
      9.99997780375207E-01   9.99997780372036E-01   0.00000000000000E+00   1.78213163632309E-15   9.57727545245149E-09
      2.21316388041900E-08   3.17089160387731E-08   1.51629923623335E-29   0.00000000000000E+00   3.17089058499143E-12
      0.00000000000000E+00   3.42076546703133E-18  -9.18596019083994E-15  -3.17089073538258E-08  -3.17089165363652E-08
     -1.34513342695771E-29
      2.75828390000000E-12
      9.99997780376041E-01   9.99997780372866E-01   0.00000000000000E+00  -2.26166263213963E-15   9.57727948406438E-09
      2.21316388386086E-08   3.17089160610103E-08   7.10664714631761E-28   0.00000000000000E+00   3.17089151301419E-12
      0.00000000000000E+00   7.59990616630019E-18  -9.19047613368332E-15  -3.17089072663053E-08  -3.17089164491815E-08
     -1.45158283484645E-30
      3.25828390000000E-12
      9.99997780375532E-01   9.99997780372365E-01   0.00000000000000E+00   5.09939900625297E-16   9.57727671983406E-09
      2.21316388154878E-08   3.17089160452618E-08  -1.12882339151834E-27   0.00000000000000E+00   3.17089096188150E-12
      0.00000000000000E+00   7.04938800415226E-18  -9.18960844160861E-15  -3.17089072434577E-08  -3.17089164260167E-08
      9.48367452099679E-30
      3.75828390000000E-12
      9.99997780375692E-01   9.99997780372520E-01   0.00000000000000E+00  -4.25278157622220E-16   9.57727765498921E-09
      2.21316388229895E-08   3.17089160527005E-08  -2.08209900807834E-28   0.00000000000000E+00   3.17089122848713E-12
      0.00000000000000E+00  -4.79413598544285E-19  -9.18229221979685E-15  -3.17089071515952E-08  -3.17089163343668E-08
     -6.87082541827318E-30
      4.25828390000000E-12
      9.99997780375789E-01   9.99997780372615E-01   0.00000000000000E+00  -8.33208011427290E-16   9.57727805874211E-09
      2.21316388266845E-08   3.17089160522186E-08   1.09856091354270E-27   0.00000000000000E+00   3.17089128555293E-12
      0.00000000000000E+00   2.78071638547896E-18  -9.18556578535144E-15  -3.17089071072002E-08  -3.17089162899852E-08
     -8.41918044210939E-30
      4.75828390000000E-12
      9.99997780375588E-01   9.99997780372422E-01   0.00000000000000E+00   1.91740450859844E-15   9.57727532758270E-09
      2.21316388038974E-08   3.17089160488846E-08   1.84955846206685E-29   0.00000000000000E+00   3.17089104252766E-12
      0.00000000000000E+00   1.90395451744928E-18  -9.18459949190460E-15  -3.17089070564314E-08  -3.17089162391269E-08
     -1.51932336713928E-29
      5.00000000000000E-12
      9.99997780375793E-01   9.99997780372617E-01   0.00000000000000E+00   3.91936446626519E-16   9.57727685026397E-09
      2.21316388167815E-08   3.17089160589819E-08  -7.17701867249861E-29   0.00000000000000E+00   3.17089163762710E-12
      0.00000000000000E+00  -2.67845335105811E-19  -9.18235138062012E-15  -3.17089069721093E-08  -3.17089161547285E-08
     -3.26122276895502E-29
      5.50000000000000E-12
      9.99997780376037E-01   9.99997780372863E-01   0.00000000000000E+00   1.74038844460138E-15   9.57727551017273E-09
      2.21316388063460E-08   3.17089160569072E-08   4.19824973015746E-29   0.00000000000000E+00   3.17089152972084E-12
      0.00000000000000E+00   6.05183305714614E-18  -9.18887879145487E-15  -3.17089069510234E-08  -3.17089161338504E-08
     -8.99981357604797E-30
      6.00000000000000E-12
      9.99997780375821E-01   9.99997780372657E-01   0.00000000000000E+00  -2.28676060756829E-15   9.57727950256201E-09
      2.21316388384356E-08   3.17089160542370E-08   1.00654265833706E-27   0.00000000000000E+00   3.17089159302627E-12
      0.00000000000000E+00   5.19830611092108E-19  -9.18331767406696E-15  -3.17089068756519E-08  -3.17089160584497E-08
     -2.41930472474408E-30
      6.50000000000000E-12
      9.99997780375478E-01   9.99997780372301E-01   0.00000000000000E+00   1.59019805262837E-15   9.57727564835271E-09
      2.21316388066408E-08   3.17089160451915E-08  -9.46320115476364E-28   0.00000000000000E+00   3.17089081331060E-12
      0.00000000000000E+00  -6.29321615795421E-18  -9.17663250103681E-15  -3.17089068654623E-08  -3.17089160483880E-08
      1.08384851668535E-29
      7.00000000000000E-12
      9.99997780376094E-01   9.99997780372927E-01   0.00000000000000E+00   7.40925961495406E-16   9.57727650444924E-09
      2.21316388140983E-08   3.17089160594735E-08   2.25825463334877E-28   0.00000000000000E+00   3.17089161320300E-12
      0.00000000000000E+00   5.54301937625146E-18  -9.18840550486867E-15  -3.17089068062989E-08  -3.17089159891614E-08
      1.22900680016999E-29
      7.50000000000000E-12
      9.99997780375523E-01   9.99997780372348E-01   0.00000000000000E+00  -2.33597423276447E-16   9.57727745997544E-09
      2.21316388210327E-08   3.17089160474107E-08   3.53074843594604E-28   0.00000000000000E+00   3.17089124615827E-12
      0.00000000000000E+00   3.84849886203771E-18  -9.18643347742615E-15  -3.17089067303204E-08  -3.17089159129054E-08
      9.77399108796608E-30
      8.00000000000000E-12
      9.99997780375533E-01   9.99997780372365E-01   0.00000000000000E+00   9.57149564880293E-16   9.57727627902677E-09
      2.21316388114176E-08   3.17089160475939E-08  -1.00433806690663E-27   0.00000000000000E+00   3.17089099343318E-12
      0.00000000000000E+00  -5.92165614586036E-18  -9.17702690652531E-15  -3.17089066732647E-08  -3.17089158562133E-08
     -2.22576034676455E-30
      8.50000000000000E-12
      9.99997780375617E-01   9.99997780372442E-01   0.00000000000000E+00  -1.72470424161001E-15   9.57727894191461E-09
      2.21316388333033E-08   3.17089160505137E-08   1.21523188389348E-28   0.00000000000000E+00   3.17089119339288E-12
      0.00000000000000E+00  -2.74089558327123E-18  -9.18006382878680E-15  -3.17089066009079E-08  -3.17089157837126E-08
     -2.14834259557274E-29
      9.00000000000000E-12
      9.99997780375845E-01   9.99997780372674E-01   0.00000000000000E+00  -1.18649253917893E-15   9.57727840903335E-09
      2.21316388298854E-08   3.17089160524262E-08   9.57137431726876E-31   0.00000000000000E+00   3.17089114632398E-12
      0.00000000000000E+00  -5.06597333760843E-19  -9.18246970226667E-15  -3.17089066213188E-08  -3.17089158042951E-08
      9.58044670998655E-30
      9.50000000000000E-12
      9.99997780375227E-01   9.99997780372053E-01   0.00000000000000E+00  -6.00949996281692E-17   9.57727728190138E-09
      2.21316388192084E-08   3.17089160410148E-08   2.30272447832047E-28   0.00000000000000E+00   3.17089070974140E-12
      0.00000000000000E+00   4.06157493278556E-20  -9.18266690501092E-15  -3.17089065589189E-08  -3.17089157415452E-08
      3.77411537060076E-30
      1.00000000000000E-11
      9.99997780376431E-01   9.99997780373259E-01   0.00000000000000E+00  -2.03829962162996E-15   9.57727923984852E-09
      2.21316388341427E-08   3.17089160356916E-08  -2.31104083831178E-28   0.00000000000000E+00   3.17089221644515E-12
      0.00000000000000E+00  -6.72394788612021E-18  -9.17679026323221E-15  -3.17089066389946E-08  -3.17089158225088E-08
     -7.25791417423224E-30
      1.05000000000000E-11
      9.99997780375487E-01   9.99997780372318E-01   0.00000000000000E+00  -2.23301376185666E-16   9.57727745508480E-09
      2.21316388210871E-08   3.17089160528705E-08   2.29198881360442E-28   0.00000000000000E+00   3.17089095048587E-12
      0.00000000000000E+00   4.34565187838225E-18  -9.18686732346350E-15  -3.17089066690192E-08  -3.17089158515408E-08
      2.03221596878503E-30
      1.10000000000000E-11
      9.99997780375692E-01   9.99997780372520E-01   0.00000000000000E+00   1.00743241987524E-15   9.57727622866121E-09
      2.21316388111816E-08   3.17089160472752E-08   1.02311943189791E-27   0.00000000000000E+00   3.17089110115366E-12
      0.00000000000000E+00   5.30998754056953E-19  -9.18333739434138E-15  -3.17089065995174E-08  -3.17089157823238E-08
      6.48373666231413E-30
      1.15000000000000E-11
      9.99997780375963E-01   9.99997780372798E-01   0.00000000000000E+00  -1.72589644195159E-15   9.57727894921111E-09
      2.21316388341180E-08   3.17089160574327E-08   1.64656367500629E-28   0.00000000000000E+00   3.17089143168076E-12
      0.00000000000000E+00   1.25022716099296E-18  -9.18414592559282E-15  -3.17089065641051E-08  -3.17089157470008E-08
      4.54829288251887E-30
      1.20000000000000E-11
      9.99997780375689E-01   9.99997780372519E-01   0.00000000000000E+00   1.37713527996333E-15   9.57727586148942E-09
      2.21316388083714E-08   3.17089160469961E-08  -2.48946456176166E-29   0.00000000000000E+00   3.17089108636294E-12
      0.00000000000000E+00  -3.26740979868311E-18  -9.17961026247502E-15  -3.17089065547559E-08  -3.17089157376336E-08
      1.83867159080550E-30
      1.25000000000000E-11
      9.99997780375999E-01   9.99997780372832E-01   0.00000000000000E+00   1.42430708780182E-15   9.57727582514495E-09
      2.21316388082414E-08   3.17089160576934E-08  -7.46869609837556E-28   0.00000000000000E+00   3.17089153816309E-12
      0.00000000000000E+00  -3.17934348294021E-18  -9.17976802467041E-15  -3.17089065015966E-08  -3.17089156845440E-08
      3.02896951537959E-29
      1.30000000000000E-11
      9.99997780376190E-01   9.99997780373021E-01   0.00000000000000E+00   1.90716082432883E-15   9.57727534653388E-09
      2.21316388047843E-08   3.17089160584790E-08   8.28932426100876E-28   0.00000000000000E+00   3.17089187887206E-12
      0.00000000000000E+00   1.31775446255603E-19  -9.18308103077385E-15  -3.17089064692803E-08  -3.17089156522295E-08
     -7.35468636322200E-30
      1.35000000000000E-11
      9.99997780375946E-01   9.99997780372771E-01   0.00000000000000E+00   1.89219467460517E-15   9.57727535941122E-09
      2.21316388042638E-08   3.17089160558697E-08   8.81023080955521E-28   0.00000000000000E+00   3.17089170093912E-12
      0.00000000000000E+00   1.37162941140385E-19  -9.18292326857845E-15  -3.17089064154963E-08  -3.17089155982824E-08
      2.61284910272360E-30
      1.40000000000000E-11
      9.99997780375843E-01   9.99997780372665E-01   0.00000000000000E+00   1.07662368401240E-15   9.57727616510276E-09
      2.21316388107942E-08   3.17089160525206E-08   2.70898622422312E-28   0.00000000000000E+00   3.17089159788315E-12
      0.00000000000000E+00  -1.29135703373003E-18  -9.18152312909426E-15  -3.17089063483352E-08  -3.17089155311497E-08
      3.22251389335911E-29
      1.45000000000000E-11
      9.99997780375805E-01   9.99997780372631E-01   0.00000000000000E+00  -9.80814203127353E-16   9.57727820676252E-09
      2.21316388276414E-08   3.17089160535898E-08  -6.08264618026062E-28   0.00000000000000E+00   3.17089140729450E-12
      0.00000000000000E+00  -1.35896642222398E-18  -9.18148368854541E-15  -3.17089063075710E-08  -3.17089154904136E-08
      2.22576034676455E-30
      1.50000000000000E-11
      9.99997780376094E-01   9.99997780372927E-01   0.00000000000000E+00   4.60386474418544E-16   9.57727676306092E-09
      2.21316388146133E-08   3.17089160380607E-08  -3.34889232391793E-28   0.00000000000000E+00   3.17089173869458E-12
      0.00000000000000E+00   2.65288975263529E-18  -9.18582214891896E-15  -3.17089063726610E-08  -3.17089155558302E-08
      4.54829288251887E-30
      1.55000000000000E-11
      9.99997780375738E-01   9.99997780372567E-01   0.00000000000000E+00  -7.63535367925602E-16   9.57727799453289E-09
      2.21316388255898E-08   3.17089160565874E-08  -9.07212054600876E-28   0.00000000000000E+00   3.17089130080801E-12
      0.00000000000000E+00   8.56015476340247E-19  -9.18363319845776E-15  -3.17089063554520E-08  -3.17089155382291E-08
     -4.54829288251887E-30
      1.60000000000000E-11
      9.99997780375434E-01   9.99997780372268E-01   0.00000000000000E+00  -5.24137159348837E-16   9.57727774256695E-09
      2.21316388231123E-08   3.17089160415421E-08  -1.61297767716503E-27   0.00000000000000E+00   3.17089087474689E-12
      0.00000000000000E+00   1.28102704153315E-18  -9.18402760394627E-15  -3.17089062982610E-08  -3.17089154810076E-08
      3.59024821152021E-29
      1.65000000000000E-11
      9.99997780375321E-01   9.99997780372147E-01   0.00000000000000E+00   2.35401439115729E-16   9.57727699244717E-09
      2.21316388166527E-08   3.17089160445013E-08  -2.09221472595868E-28   0.00000000000000E+00   3.17089066796044E-12
      0.00000000000000E+00  -4.09575333858629E-18  -9.17872285012588E-15  -3.17089062374370E-08  -3.17089154202556E-08
     -1.14191183007920E-29
      1.70000000000000E-11
      9.99997780375795E-01   9.99997780372618E-01   0.00000000000000E+00  -1.48010379107000E-15   9.57727869978908E-09
      2.21316388315917E-08   3.17089160512770E-08  -7.36321441237672E-28   0.00000000000000E+00   3.17089120404586E-12
      0.00000000000000E+00   2.90801593381905E-18  -9.18574326782126E-15  -3.17089061996832E-08  -3.17089153825184E-08
     -3.77411537060076E-30
      1.75000000000000E-11
      9.99997780375383E-01   9.99997780372207E-01   0.00000000000000E+00   1.37496695368406E-15   9.57727586125278E-09
      2.21316388077867E-08   3.17089160440065E-08  -1.60229342267438E-27   0.00000000000000E+00   3.17089073600333E-12
      0.00000000000000E+00   3.01592568501168E-18  -9.18562494617471E-15  -3.17089061857315E-08  -3.17089153683405E-08
      9.38690233200702E-30
      1.80000000000000E-11
      9.99997780376071E-01   9.99997780372897E-01   0.00000000000000E+00   1.51916435596827E-15   9.57727573056652E-09
      2.21316388075251E-08   3.17089160572560E-08   3.14152766769830E-28   0.00000000000000E+00   3.17089157888143E-12
      0.00000000000000E+00   2.03702607313987E-18  -9.18499389739310E-15  -3.17089061463429E-08  -3.17089153292998E-08
     -2.44833638144101E-29
      1.85000000000000E-11
      9.99997780375663E-01   9.99997780372489E-01   0.00000000000000E+00  -2.05870946986387E-15   9.57727927315606E-09
      2.21316388360773E-08   3.17089160505239E-08  -3.18649649426948E-28   0.00000000000000E+00   3.17089136777621E-12
      0.00000000000000E+00   3.95727268618699E-18  -9.18665040044482E-15  -3.17089060929594E-08  -3.17089152756525E-08
     -1.11288017338228E-29
      1.90000000000000E-11
      9.99997780375565E-01   9.99997780372392E-01   0.00000000000000E+00   1.16294062356944E-15   9.57727607206251E-09
      2.21316388098865E-08   3.17089160448897E-08  -5.17906610687777E-28   0.00000000000000E+00   3.17089083779742E-12
      0.00000000000000E+00  -3.60890439224993E-18  -9.17931445835864E-15  -3.17089061046755E-08  -3.17089152875989E-08
      8.80626919806845E-30
      1.95000000000000E-11
      9.99997780375963E-01   9.99997780372798E-01   0.00000000000000E+00  -2.38134343752297E-15   9.57727959865892E-09
      2.21316388392036E-08   3.17089160565191E-08  -2.79472033540624E-28   0.00000000000000E+00   3.17089142249956E-12
      0.00000000000000E+00  -2.83810379089560E-18  -9.18012298961007E-15  -3.17089060725620E-08  -3.17089152555231E-08
     -1.26771567576590E-29
      2.00000000000000E-11
      9.99997780375605E-01   9.99997780372429E-01   0.00000000000000E+00  -1.98830851654847E-15   9.57727919488628E-09
      2.21316388353145E-08   3.17089160418922E-08   1.65111499201971E-28   0.00000000000000E+00   3.17089097017802E-12
      0.00000000000000E+00  -1.72213196554386E-18  -9.18118788442904E-15  -3.17089060947840E-08  -3.17089152776940E-08
      1.09352573558432E-29
      2.05000000000000E-11
      9.99997780375689E-01   9.99997780372519E-01   0.00000000000000E+00   2.01130502766325E-15   9.57727523513406E-09
      2.21316388031317E-08   3.17089160495708E-08   6.10343708023889E-28   0.00000000000000E+00   3.17089085567555E-12
      0.00000000000000E+00  -1.05374129101301E-18  -9.18172033183852E-15  -3.17089061001015E-08  -3.17089152828755E-08
      1.79028549631062E-29
      2.10000000000000E-11
      9.99997780376272E-01   9.99997780373098E-01   0.00000000000000E+00   1.49291374177834E-15   9.57727575906232E-09
      2.21316388079558E-08   3.17089160599319E-08  -6.76540421489246E-28   0.00000000000000E+00   3.17089181869056E-12
      0.00000000000000E+00   2.80598619909651E-18  -9.18576298809569E-15  -3.17089060603263E-08  -3.17089152432833E-08
     -1.27739289466487E-29
      2.15000000000000E-11
      9.99997780376134E-01   9.99997780372959E-01   0.00000000000000E+00  -2.36052629121948E-15   9.57727957897809E-09
      2.21316388394280E-08   3.17089160578798E-08   1.01299312955940E-27   0.00000000000000E+00   3.17089180910258E-12
      0.00000000000000E+00   7.96007769682524E-18  -9.19069305670199E-15  -3.17089060452581E-08  -3.17089152279911E-08
     -1.05481685998842E-29
      2.20000000000000E-11
      9.99997780375159E-01   9.99997780371989E-01   0.00000000000000E+00   5.63005316801480E-16   9.57727665872096E-09
      2.21316388137968E-08   3.17089160355230E-08  -1.28805295610828E-28   0.00000000000000E+00   3.17089052669821E-12
      0.00000000000000E+00   3.43225331699013E-18  -9.18584186919339E-15  -3.17089060162977E-08  -3.17089151987073E-08
     -6.29019228433460E-30
      2.25000000000000E-11
      9.99997780376068E-01   9.99997780372896E-01   0.00000000000000E+00   1.01236171415256E-15   9.57727623392653E-09
      2.21316388115887E-08   3.17089160578770E-08   1.39063752469924E-27   0.00000000000000E+00   3.17089131573222E-12
      0.00000000000000E+00   6.86287353609218E-18  -9.18980564435286E-15  -3.17089059885864E-08  -3.17089151715291E-08
     -1.03546242219047E-29
      2.30000000000000E-11
      9.99997780375873E-01   9.99997780372705E-01   0.00000000000000E+00   6.53857399436291E-16   9.57727658336980E-09
      2.21316388141501E-08   3.17089160513772E-08   8.72265197851948E-28   0.00000000000000E+00   3.17089150075535E-12
      0.00000000000000E+00   2.43833611713156E-18  -9.18525026096063E-15  -3.17089059527823E-08  -3.17089151355942E-08
     -7.06436979625271E-30
      2.35000000000000E-11
      9.99997780376057E-01   9.99997780372892E-01   0.00000000000000E+00  -1.02292778404230E-15   9.57727825093593E-09
      2.21316388282769E-08   3.17089160562850E-08  -1.01820068297942E-27   0.00000000000000E+00   3.17089153263263E-12
      0.00000000000000E+00  -2.14013589905824E-19  -9.18276550638305E-15  -3.17089059460050E-08  -3.17089151289845E-08
     -2.11931093887581E-29
      2.40000000000000E-11
      9.99997780375523E-01   9.99997780372348E-01   0.00000000000000E+00   1.62239124649081E-16   9.57727706344018E-09
      2.21316388176218E-08   3.17089160433011E-08   5.74524389508600E-29   0.00000000000000E+00   3.17089097824455E-12
      0.00000000000000E+00  -1.25863891122606E-18  -9.18152312909426E-15  -3.17089059242368E-08  -3.17089151070185E-08
     -2.73865294841030E-29
      2.45000000000000E-11
      9.99997780376061E-01   9.99997780372893E-01   0.00000000000000E+00   2.05205404728358E-15   9.57727520135323E-09
      2.21316388031450E-08   3.17089160565523E-08   1.74740332006453E-28   0.00000000000000E+00   3.17089137796115E-12
      0.00000000000000E+00  -4.22491928451277E-18  -9.17884117177243E-15  -3.17089059158124E-08  -3.17089150988785E-08
     -5.51601477241650E-30
      2.50000000000000E-11
      9.99997780375842E-01   9.99997780372665E-01   0.00000000000000E+00   9.77327863163640E-16   9.57727626011507E-09
      2.21316388108877E-08   3.17089160483306E-08  -1.35813718985321E-28   0.00000000000000E+00   3.17089160161075E-12
      0.00000000000000E+00   1.58385869065417E-18  -9.18434312833707E-15  -3.17089058564391E-08  -3.17089150391984E-08
     -2.48704525703691E-29
      2.55000000000000E-11
      9.99997780375807E-01   9.99997780372631E-01   0.00000000000000E+00  -8.44387698406836E-16   9.57727807071235E-09
      2.21316388261286E-08   3.17089160524532E-08   9.48727323677484E-28   0.00000000000000E+00   3.17089135400103E-12
      0.00000000000000E+00  -1.17002390915568E-18  -9.18174005211294E-15  -3.17089058243968E-08  -3.17089150073068E-08
      6.67728104029366E-30
      2.60000000000000E-11
      9.99997780375573E-01   9.99997780372409E-01   0.00000000000000E+00   5.88040932084861E-16   9.57727664270809E-09
      2.21316388142306E-08   3.17089160449797E-08   4.18388510835429E-29   0.00000000000000E+00   3.17089095946579E-12
      0.00000000000000E+00  -4.59349392454135E-18  -9.17840732573508E-15  -3.17089058064430E-08  -3.17089149894438E-08
      5.32247039443697E-30
      2.65000000000000E-11
      9.99997780376137E-01   9.99997780372973E-01   0.00000000000000E+00  -2.10191239187564E-15   9.57727932283142E-09
      2.21316388371209E-08   3.17089160580399E-08  -2.12195705341850E-27   0.00000000000000E+00   3.17089150005654E-12
      0.00000000000000E+00   1.02294141047282E-18  -9.18400788367184E-15  -3.17089058079622E-08  -3.17089149909471E-08
     -2.99993785868266E-30
      2.70000000000000E-11
      9.99997780375318E-01   9.99997780372144E-01   0.00000000000000E+00   1.29642326628953E-16   9.57727709122603E-09
      2.21316388176443E-08   3.17089160385127E-08  -2.11996415115149E-27   0.00000000000000E+00   3.17089071577487E-12
      0.00000000000000E+00  -8.50174343153218E-19  -9.18185837375949E-15  -3.17089057987425E-08  -3.17089149814511E-08
      7.54823074120153E-30
      2.75000000000000E-11
      9.99997780375575E-01   9.99997780372409E-01   0.00000000000000E+00  -2.18035153076279E-15   9.57727939124107E-09
      2.21316388365130E-08   3.17089160474025E-08  -6.35524134012116E-28   0.00000000000000E+00   3.17089089797658E-12
      0.00000000000000E+00  -2.53012658731767E-18  -9.18032019235432E-15  -3.17089057429097E-08  -3.17089149257600E-08
     -1.36448786475566E-29
      2.80000000000000E-11
      9.99997780375241E-01   9.99997780372066E-01   0.00000000000000E+00  -1.52523861171864E-15   9.57727873246557E-09
      2.21316388307737E-08   3.17089160380006E-08  -1.48539261837475E-28   0.00000000000000E+00   3.17089045207613E-12
      0.00000000000000E+00  -3.50100328178688E-18  -9.17927501780979E-15  -3.17089057213396E-08  -3.17089149041156E-08
      1.63544999392700E-29
      2.85000000000000E-11
      9.99997780375675E-01   9.99997780372506E-01   0.00000000000000E+00  -1.86542588450386E-15   9.57727907938465E-09
      2.21316388345651E-08   3.17089160485239E-08  -4.58970835527558E-28   0.00000000000000E+00   3.17089078404604E-12
      0.00000000000000E+00   1.80921323811617E-18  -9.18471781355115E-15  -3.17089057235223E-08  -3.17089149064309E-08
      5.99987571736531E-30
      2.90000000000000E-11
      9.99997780375274E-01   9.99997780372100E-01   0.00000000000000E+00  -2.95900414452961E-16   9.57727751359487E-09
      2.21316388207815E-08   3.17089160384760E-08  -8.04055925268694E-28   0.00000000000000E+00   3.17089053518359E-12
      0.00000000000000E+00  -2.82813238897573E-18  -9.17990606659140E-15  -3.17089056948010E-08  -3.17089148775352E-08
     -1.98382987429014E-29
      2.95000000000000E-11
      9.99997780375681E-01   9.99997780372516E-01   0.00000000000000E+00  -2.42272555475791E-15   9.57727963309050E-09
      2.21316388388019E-08   3.17089160491668E-08  -8.82677280561065E-28   0.00000000000000E+00   3.17089089134920E-12
      0.00000000000000E+00   2.36626379181645E-19  -9.18306131049943E-15  -3.17089056667502E-08  -3.17089148495749E-08
     -6.09664790635508E-30
      3.00000000000000E-11
      9.99997780375999E-01   9.99997780372832E-01   0.00000000000000E+00  -1.36544558688221E-15   9.57727856312758E-09
      2.21316388280250E-08   3.17089160257070E-08  -1.61768776105102E-27   0.00000000000000E+00   3.17089158821522E-12
      0.00000000000000E+00   3.05993292069443E-18  -9.18631515577959E-15  -3.17089057809122E-08  -3.17089149641674E-08
     -2.09027928217888E-29
      3.05000000000000E-11
      9.99997780375745E-01   9.99997780372570E-01   0.00000000000000E+00   2.11761008736624E-15   9.57727513657214E-09
      2.21316388019066E-08   3.17089160560888E-08   9.80837545636650E-28   0.00000000000000E+00   3.17089100943949E-12
      0.00000000000000E+00   1.91660022517001E-19  -9.18292326857845E-15  -3.17089058179021E-08  -3.17089150006338E-08
     -2.02253874988605E-29
      3.10000000000000E-11
      9.99997780375819E-01   9.99997780372648E-01   0.00000000000000E+00   2.18691642009904E-15   9.57727506058992E-09
      2.21316388010152E-08   3.17089160485216E-08   7.75849856309084E-28   0.00000000000000E+00   3.17089145986583E-12
      0.00000000000000E+00   4.47615713739156E-19  -9.18325851324368E-15  -3.17089057260327E-08  -3.17089149088436E-08
      2.42898194364305E-29
      3.15000000000000E-11
      9.99997780375780E-01   9.99997780372613E-01   0.00000000000000E+00   1.00831193813600E-15   9.57727623361101E-09
      2.21316388108428E-08   3.17089160527658E-08  -9.63851002338041E-28   0.00000000000000E+00   3.17089140085697E-12
      0.00000000000000E+00   1.91418514125614E-18  -9.18467837300230E-15  -3.17089056719123E-08  -3.17089148546765E-08
     -3.02896951537959E-29
      3.20000000000000E-11
      9.99997780376108E-01   9.99997780372940E-01   0.00000000000000E+00  -6.06324767692188E-16   9.57727783682986E-09
      2.21316388247386E-08   3.17089160552437E-08  -1.65671568245750E-27   0.00000000000000E+00   3.17089164203906E-12
      0.00000000000000E+00  -8.82715330701075E-19  -9.18215417787587E-15  -3.17089056704735E-08  -3.17089148535104E-08
     -1.77093105851267E-29
      3.25000000000000E-11
      9.99997780375355E-01   9.99997780372187E-01   0.00000000000000E+00  -1.10397381375823E-15   9.57727831855675E-09
      2.21316388275780E-08   3.17089160421609E-08  -4.27955348956339E-28   0.00000000000000E+00   3.17089082512041E-12
      0.00000000000000E+00  -8.00309556897262E-18  -9.17479851551526E-15  -3.17089056430649E-08  -3.17089148258665E-08
      3.38702661464171E-30
      3.30000000000000E-11
      9.99997780375403E-01   9.99997780372237E-01   0.00000000000000E+00  -1.53254968421772E-15   9.57727874315397E-09
      2.21316388308919E-08   3.17089160414962E-08   5.11561984047135E-29   0.00000000000000E+00   3.17089064967415E-12
      0.00000000000000E+00   3.37952326480989E-18  -9.18617711385862E-15  -3.17089056077935E-08  -3.17089147905911E-08
      1.13223461118023E-29
      3.35000000000000E-11
      9.99997780375572E-01   9.99997780372395E-01   0.00000000000000E+00  -5.12493910189136E-16   9.57727773601983E-09
      2.21316388231872E-08   3.17089160467131E-08   3.03225069741252E-28   0.00000000000000E+00   3.17089070847737E-12
      0.00000000000000E+00   4.37687515467120E-18  -9.18724200867758E-15  -3.17089056112332E-08  -3.17089147940984E-08
      2.99993785868266E-30
      3.40000000000000E-11