DF-ISE text

Info {
  version   = 1.0
  type      = xyplot
  datasets  = [
    "time"
    "ntype OuterVoltage" "ntype InnerVoltage" "ntype QuasiFermiPotential" "ntype DisplacementCurrent" "ntype eCurrent"
    "ntype hCurrent" "ntype TotalCurrent" "ntype Charge" "ptype OuterVoltage" "ptype InnerVoltage"
    "ptype QuasiFermiPotential" "ptype DisplacementCurrent" "ptype eCurrent" "ptype hCurrent" "ptype TotalCurrent"
    "ptype Charge" ]
  functions = [
    Time
    OuterVoltage InnerVoltage QuasiFermiPotential DisplacementCurrent eCurrent
    hCurrent TotalCurrent Charge OuterVoltage InnerVoltage
    QuasiFermiPotential DisplacementCurrent eCurrent hCurrent TotalCurrent
    Charge ]
}

Data {
      1.00000000000000E-13
      9.99993571675353E-01   9.99993571666165E-01   0.00000000000000E+00  -2.17996781324419E-15   9.58962465869851E-08
     -4.06300888264499E-09   9.18332355243723E-08   1.62595422288238E-28   0.00000000000000E+00   9.18330956517483E-12
      0.00000000000000E+00  -2.56980481748755E-18   2.78831266200361E-09  -9.46215488017810E-08  -9.18332361423472E-08
     -3.94830531078234E-29
      2.30000000000000E-13
      9.99993571672475E-01   9.99993571663293E-01   0.00000000000000E+00   6.53715414968053E-16   9.58962438990330E-08
     -4.06300890170960E-09   9.18332356510389E-08   3.13126074327267E-28   0.00000000000000E+00   9.18332019543257E-12
      0.00000000000000E+00  -2.26817422977628E-18   2.78831267026641E-09  -9.46215489933111E-08  -9.18332363253129E-08
     -1.88705768530038E-29
      3.99000000000000E-13
      9.99993571673082E-01   9.99993571663904E-01   0.00000000000000E+00   1.24146701654374E-15   9.58962433335540E-08
     -4.06300890272837E-09   9.18332356722926E-08  -1.07141631453107E-27   0.00000000000000E+00   9.18332245469151E-12
      0.00000000000000E+00  -2.30118181672074E-18   2.78831267050305E-09  -9.46215489279328E-08  -9.18332362597309E-08
     -1.72254496401778E-29
      6.18700000000000E-13
      9.99993571673249E-01   9.99993571664062E-01   0.00000000000000E+00   2.32897487890488E-15   9.58962422620730E-08
     -4.06300890797068E-09   9.18332356830773E-08   8.02604342433848E-30   0.00000000000000E+00   9.18332329582998E-12
      0.00000000000000E+00   3.63399707091137E-18   2.78831266490249E-09  -9.46215488527370E-08  -9.18332361842005E-08
     -1.26771567576590E-29
      9.04310000000000E-13
      9.99993571674163E-01   9.99993571664983E-01   0.00000000000000E+00   5.84946717069611E-16   9.58962439783284E-08
     -4.06300889335087E-09   9.18332356699243E-08  -9.98146158876741E-28   0.00000000000000E+00   9.18332534149810E-12
      0.00000000000000E+00  -2.16156490838344E-19   2.78831266821550E-09  -9.46215488447259E-08  -9.18332361767265E-08
      2.70962129171337E-30
      1.27560300000000E-12
      9.99993571674140E-01   9.99993571664953E-01   0.00000000000000E+00  -3.21224686268609E-16   9.58962448839229E-08
     -4.06300888504993E-09   9.18332356776483E-08  -8.39264369340986E-28   0.00000000000000E+00   9.18332505973720E-12
      0.00000000000000E+00  -1.07269473131737E-18   2.78831266904375E-09  -9.46215489447622E-08  -9.18332362767911E-08
     -9.67721889897631E-31
      1.75828390000000E-12
      9.99993571672954E-01   9.99993571663767E-01   0.00000000000000E+00   2.24364592900722E-15   9.58962423436163E-08
     -4.06300890441790E-09   9.18332356828444E-08  -3.91993896288471E-28   0.00000000000000E+00   9.18332308211758E-12
      0.00000000000000E+00   5.79065404490097E-18   2.78831266302906E-09  -9.46215488891789E-08  -9.18332362203592E-08
     -1.70319052621983E-29
      2.25828390000000E-12
      9.99993571673945E-01   9.99993571664756E-01   0.00000000000000E+00   9.30929720328349E-16   9.58962436593726E-08
     -4.06300889159602E-09   9.18332356987063E-08   2.65111947933815E-28   0.00000000000000E+00   9.18332388678317E-12
      0.00000000000000E+00  -3.19897090015077E-18   2.78831267115382E-09  -9.46215488052945E-08  -9.18332361373396E-08
     -2.21608312786558E-29
      2.75828390000000E-12
      9.99993571673630E-01   9.99993571664453E-01   0.00000000000000E+00  -7.02528002303224E-16   9.58962452736348E-08
     -4.06300887852774E-09   9.18332356925790E-08  -5.66511954673338E-28   0.00000000000000E+00   9.18332371730674E-12
      0.00000000000000E+00   5.64699327512650E-18   2.78831266283186E-09  -9.46215487669433E-08  -9.18332360984645E-08
     -2.32253253575432E-30
      3.25828390000000E-12
      9.99993571673417E-01   9.99993571664234E-01   0.00000000000000E+00   7.69244855277319E-16   9.58962438070972E-08
     -4.06300889086532E-09   9.18332356854768E-08  -1.40232276651975E-27   0.00000000000000E+00   9.18332330979549E-12
      0.00000000000000E+00   1.62882936768360E-18   2.78831266663787E-09  -9.46215487246098E-08  -9.18332360563431E-08
      2.01286153098707E-29
      3.75828390000000E-12
      9.99993571673104E-01   9.99993571663919E-01   0.00000000000000E+00  -4.67545556484544E-16   9.58962450316081E-08
     -4.06300888176628E-09   9.18332356822962E-08  -7.98960264692202E-29   0.00000000000000E+00   9.18332306523447E-12
      0.00000000000000E+00  -4.25030574797948E-18   2.78831267261312E-09  -9.46215486158162E-08  -9.18332359474534E-08
      7.06436979625271E-30
      4.25828390000000E-12
      9.99993571673133E-01   9.99993571663952E-01   0.00000000000000E+00  -9.07307037143701E-16   9.58962454667356E-08
     -4.06300887794419E-09   9.18332356814844E-08  -1.83776435153372E-29   0.00000000000000E+00   9.18332290473599E-12
      0.00000000000000E+00   4.47116279570206E-18   2.78831266397564E-09  -9.46215485449205E-08  -9.18332358764737E-08
      1.62577277502802E-29
      4.75828390000000E-12
      9.99993571673429E-01   9.99993571664238E-01   0.00000000000000E+00   9.69009346402568E-16   9.58962436115903E-08
     -4.06300889246757E-09   9.18332356881321E-08  -3.34130175534405E-28   0.00000000000000E+00   9.18332311173386E-12
      0.00000000000000E+00   1.48857304535836E-18   2.78831266673647E-09  -9.46215485198889E-08  -9.18332358516638E-08
      5.80633133938579E-31
      5.00000000000000E-12
      9.99993571673334E-01   9.99993571664144E-01   0.00000000000000E+00   2.07643056499708E-15   9.58962425160107E-08
     -4.06300890139581E-09   9.18332356910454E-08  -3.46052811631034E-28   0.00000000000000E+00   9.18332332313312E-12
      0.00000000000000E+00   1.22499623065846E-18   2.78831266726892E-09  -9.46215484548111E-08  -9.18332357863172E-08
     -1.19029792457409E-29
      5.50000000000000E-12
      9.99993571673331E-01   9.99993571664144E-01   0.00000000000000E+00  -1.36438006395643E-15   9.58962459248970E-08
     -4.06300887391493E-09   9.18332356866020E-08  -1.43143607475114E-27   0.00000000000000E+00   9.18332335928014E-12
      0.00000000000000E+00   1.33744668523833E-18   2.78831266689424E-09  -9.46215483562346E-08  -9.18332356880029E-08
     -9.96753546594560E-30
      6.00000000000000E-12
      9.99993571673004E-01   9.99993571663815E-01   0.00000000000000E+00   2.38481025375823E-16   9.58962443272588E-08
     -4.06300888732213E-09   9.18332356784177E-08  -1.08458035636458E-27   0.00000000000000E+00   9.18332278167108E-12
      0.00000000000000E+00  -6.64912780880292E-18   2.78831267494011E-09  -9.46215483204161E-08  -9.18332356521251E-08
      1.20965236237204E-29
      6.50000000000000E-12
      9.99993571673076E-01   9.99993571663901E-01   0.00000000000000E+00  -1.48502338180802E-15   9.58962460402604E-08
     -4.06300887358054E-09   9.18332356816565E-08  -1.82031058001015E-27   0.00000000000000E+00   9.18332291044894E-12
      0.00000000000000E+00  -5.26851203864980E-18   2.78831267346109E-09  -9.46215482375129E-08  -9.18332355693203E-08
     -6.77405322928342E-31
      7.00000000000000E-12
      9.99993571673420E-01   9.99993571664235E-01   0.00000000000000E+00  -2.14208039155845E-15   9.58962466959204E-08
     -4.06300886709322E-09   9.18332356867468E-08  -3.39091262285583E-28   0.00000000000000E+00   9.18332304164375E-12
      0.00000000000000E+00   9.11216777176542E-19   2.78831266719004E-09  -9.46215482410983E-08  -9.18332355729970E-08
      1.21932958127102E-29
      7.50000000000000E-12
      9.99993571672981E-01   9.99993571663798E-01   0.00000000000000E+00  -1.99706845362019E-15   9.58962465431671E-08
     -4.06300886919034E-09   9.18332356769083E-08   8.24001580658756E-28   0.00000000000000E+00   9.18332266940621E-12
      0.00000000000000E+00  -7.14259987435208E-19   2.78831266910291E-09  -9.46215482135039E-08  -9.18332355451152E-08
     -1.36448786475566E-29
      8.00000000000000E-12
      9.99993571672993E-01   9.99993571663811E-01   0.00000000000000E+00   2.43730529537572E-15   9.58962421456838E-08
     -4.06300890559304E-09   9.18332356773961E-08   6.66882859441158E-28   0.00000000000000E+00   9.18332255912593E-12
      0.00000000000000E+00   3.57427234814695E-18   2.78831266478417E-09  -9.46215481696363E-08  -9.18332355012778E-08
      9.19335795402750E-30
      8.50000000000000E-12
      9.99993571673744E-01   9.99993571664563E-01   0.00000000000000E+00   3.05513213134722E-17   9.58962445501769E-08
     -4.06300888478334E-09   9.18332356959449E-08   1.31025914935052E-27   0.00000000000000E+00   9.18332368375732E-12
      0.00000000000000E+00   2.15301058611249E-18   2.78831266594766E-09  -9.46215480998579E-08  -9.18332354317572E-08
      7.83854730817081E-30
      9.00000000000000E-12
      9.99993571673290E-01   9.99993571664106E-01   0.00000000000000E+00  -3.41609688084648E-17   9.58962446022186E-08
     -4.06300888479282E-09   9.18332356832648E-08   9.61135332784516E-28   0.00000000000000E+00   9.18332326560924E-12
      0.00000000000000E+00  -2.35921295649010E-18   2.78831267062137E-09  -9.46215480678155E-08  -9.18332353995534E-08
      3.19348223666218E-30
      9.50000000000000E-12
      9.99993571673030E-01   9.99993571663854E-01   0.00000000000000E+00  -1.71568376926040E-15   9.58962462669059E-08
     -4.06300887177016E-09   9.18332356794520E-08  -5.04155887458513E-28   0.00000000000000E+00   9.18332287204159E-12
      0.00000000000000E+00   3.82976143997251E-18   2.78831266462641E-09  -9.46215479992558E-08  -9.18332353307996E-08
      1.88705768530038E-29
      1.00000000000000E-11
      9.99993571674028E-01   9.99993571664845E-01   0.00000000000000E+00  -1.74784746799246E-16   9.58962447287637E-08
     -4.06300888547442E-09   9.18332356685045E-08   7.80623446944095E-28   0.00000000000000E+00   9.18332408456020E-12
      0.00000000000000E+00   6.85069874813282E-18   2.78831266093872E-09  -9.46215481272298E-08  -9.18332354594404E-08
      5.70955915039602E-30
      1.05000000000000E-11
      9.99993571673475E-01   9.99993571664285E-01   0.00000000000000E+00  -2.51506061124532E-17   9.58962446051375E-08
     -4.06300888472304E-09   9.18332356952639E-08   1.90937577138615E-28   0.00000000000000E+00   9.18332340568640E-12
      0.00000000000000E+00   5.92453350880605E-18   2.78831266261494E-09  -9.46215481444022E-08  -9.18332354758628E-08
     -1.92576656089629E-29
      1.10000000000000E-11
      9.99993571673335E-01   9.99993571664144E-01   0.00000000000000E+00  -2.13058690784397E-15   9.58962466795326E-08
     -4.06300886787911E-09   9.18332356810666E-08   3.70589097736298E-28   0.00000000000000E+00   9.18332317782536E-12
      0.00000000000000E+00   4.62209905977162E-19   2.78831266774221E-09  -9.46215480803955E-08  -9.18332354121910E-08
     -1.18062070567511E-29
      1.15000000000000E-11
      9.99993571672907E-01   9.99993571663720E-01   0.00000000000000E+00   1.56874937268232E-15   9.58962430060595E-08
     -4.06300889863693E-09   9.18332356761719E-08  -9.79013994700374E-28   0.00000000000000E+00   9.18332249005936E-12
      0.00000000000000E+00  -5.00540182334649E-18   2.78831267338221E-09  -9.46215480472842E-08  -9.18332353789074E-08
      1.38384230255361E-29
      1.20000000000000E-11
      9.99993571673680E-01   9.99993571664500E-01   0.00000000000000E+00   2.16845279683162E-15   9.58962424260273E-08
     -4.06300890261339E-09   9.18332356918667E-08   2.71294783570989E-28   0.00000000000000E+00   9.18332350575358E-12
      0.00000000000000E+00   4.38017591336564E-18   2.78831266371927E-09  -9.46215479800494E-08  -9.18332353119500E-08
      8.90304138705821E-30
      1.25000000000000E-11
      9.99993571673354E-01   9.99993571664173E-01   0.00000000000000E+00   1.65581745950131E-15   9.58962429302549E-08
     -4.06300889879084E-09   9.18332356872815E-08   1.48594603433053E-27   0.00000000000000E+00   9.18332348180371E-12
      0.00000000000000E+00   1.33638905993938E-17   2.78831265523956E-09  -9.46215479046425E-08  -9.18332352360390E-08
     -1.50964614824031E-29
      1.30000000000000E-11
      9.99993571673772E-01   9.99993571664594E-01   0.00000000000000E+00  -1.68390968102450E-15   9.58962462480530E-08
     -4.06300887068945E-09   9.18332356934539E-08  -1.57024670746424E-27   0.00000000000000E+00   9.18332375737498E-12
      0.00000000000000E+00  -2.12869557311205E-18   2.78831267026640E-09  -9.46215478754988E-08  -9.18332352073611E-08
      3.58057099262124E-30
      1.35000000000000E-11
      9.99993571673058E-01   9.99993571663872E-01   0.00000000000000E+00   1.83362653077470E-15   9.58962427448255E-08
     -4.06300890037861E-09   9.18332356780734E-08   3.46749873804851E-28   0.00000000000000E+00   9.18332283369860E-12
      0.00000000000000E+00   8.11374875180264E-18   2.78831266036683E-09  -9.46215478668943E-08  -9.18332351984138E-08
      3.04832395317754E-29
      1.40000000000000E-11
      9.99993571673537E-01   9.99993571664359E-01   0.00000000000000E+00   2.19852854967121E-15   9.58962423939817E-08
     -4.06300890307599E-09   9.18332356894342E-08  -8.38875768519574E-28   0.00000000000000E+00   9.18332344657852E-12
      0.00000000000000E+00   1.72512165797391E-18   2.78831266648011E-09  -9.46215477920960E-08  -9.18332351238908E-08
     -1.69351330732085E-29
      1.45000000000000E-11
      9.99993571673501E-01   9.99993571664324E-01   0.00000000000000E+00   2.39464763796252E-15   9.58962422000131E-08
     -4.06300890458455E-09   9.18332356900762E-08  -3.12320143440837E-28   0.00000000000000E+00   9.18332356549830E-12
      0.00000000000000E+00   3.02354680848943E-18   2.78831266529690E-09  -9.46215477379072E-08  -9.18332350695867E-08
     -2.48704525703691E-29
      1.50000000000000E-11
      9.99993571673701E-01   9.99993571664517E-01   0.00000000000000E+00   2.24372955398796E-15   9.58962423364378E-08
     -4.06300890513765E-09   9.18332356750297E-08  -3.63243483765794E-28   0.00000000000000E+00   9.18332412248715E-12
      0.00000000000000E+00  -2.61257642884227E-18   2.78831267064109E-09  -9.46215477312171E-08  -9.18332350631886E-08
     -1.04513964108944E-29
      1.55000000000000E-11
      9.99993571673658E-01   9.99993571664470E-01   0.00000000000000E+00   1.49423700902636E-15   9.58962431013480E-08
     -4.06300889688080E-09   9.18332356987042E-08  -5.00672088654881E-28   0.00000000000000E+00   9.18332374075070E-12
      0.00000000000000E+00   9.33191880610347E-18   2.78831265914417E-09  -9.46215477274401E-08  -9.18332350589640E-08
      1.95479821759322E-29
      1.60000000000000E-11
      9.99993571673680E-01   9.99993571664500E-01   0.00000000000000E+00   9.84201753629930E-16   9.58962435980030E-08
     -4.06300889258583E-09   9.18332356896189E-08  -2.38797472855864E-27   0.00000000000000E+00   9.18332376105444E-12
      0.00000000000000E+00  -1.98978720459921E-18   2.78831267006920E-09  -9.46215477020071E-08  -9.18332350339277E-08
     -2.78703904290518E-29
      1.65000000000000E-11
      9.99993571673611E-01   9.99993571664423E-01   0.00000000000000E+00   9.57813864169374E-16   9.58962436263214E-08
     -4.06300889241133E-09   9.18332356917239E-08  -2.16673535974261E-27   0.00000000000000E+00   9.18332356273325E-12
      0.00000000000000E+00  -2.98001481293284E-19   2.78831266845214E-09  -9.46215476954313E-08  -9.18332350272772E-08
      3.38702661464171E-30
      1.70000000000000E-11
      9.99993571673568E-01   9.99993571664379E-01   0.00000000000000E+00   2.19412595970535E-15   9.58962423963284E-08
     -4.06300890264677E-09   9.18332356878076E-08  -1.52697744246219E-27   0.00000000000000E+00   9.18332355924731E-12
      0.00000000000000E+00  -3.29417445851569E-18   2.78831267141018E-09  -9.46215476669582E-08  -9.18332349988422E-08
     -4.06443193757005E-30
      1.75000000000000E-11
      9.99993571673397E-01   9.99993571664218E-01   0.00000000000000E+00   1.56280119813742E-15   9.58962430230585E-08
     -4.06300889806378E-09   9.18332356877959E-08  -3.27443822101393E-28   0.00000000000000E+00   9.18332344975346E-12
      0.00000000000000E+00   1.98062803125860E-19   2.78831266807745E-09  -9.46215476037591E-08  -9.18332349354836E-08
      5.50633755351752E-29
      1.80000000000000E-11
      9.99993571673659E-01   9.99993571664472E-01   0.00000000000000E+00   1.91209311693931E-15   9.58962426788212E-08
     -4.06300890027684E-09   9.18332356906375E-08   3.68614340254726E-28   0.00000000000000E+00   9.18332363316961E-12
      0.00000000000000E+00   2.10529647744567E-18   2.78831266608571E-09  -9.46215475775246E-08  -9.18332349093336E-08
     -1.77093105851267E-29
      1.85000000000000E-11
      9.99993571673290E-01   9.99993571664106E-01   0.00000000000000E+00   4.58658272340479E-16   9.58962441159954E-08
     -4.06300888920033E-09   9.18332356854533E-08  -1.47931411525383E-27   0.00000000000000E+00   9.18332337620200E-12
      0.00000000000000E+00   6.95354071143463E-19   2.78831266764361E-09  -9.46215475201294E-08  -9.18332348517905E-08
     -3.48379880363147E-30
      1.90000000000000E-11
      9.99993571673504E-01   9.99993571664325E-01   0.00000000000000E+00  -5.90580904783520E-17   9.58962446305962E-08
     -4.06300888438676E-09   9.18332356871514E-08  -5.13899637237419E-28   0.00000000000000E+00   9.18332334362333E-12
      0.00000000000000E+00  -5.37522504879744E-19   2.78831266866906E-09  -9.46215475079988E-08  -9.18332348398673E-08
      1.06449407888739E-30
      1.95000000000000E-11
      9.99993571673229E-01   9.99993571664046E-01   0.00000000000000E+00  -8.36596974689151E-16   9.58962453980701E-08
     -4.06300887851961E-09   9.18332356829536E-08  -1.22186985123200E-27   0.00000000000000E+00   9.18332304661525E-12
      0.00000000000000E+00   1.16570354437237E-18   2.78831266711116E-09  -9.46215474895308E-08  -9.18332348212539E-08
      2.68058963501644E-29
      2.00000000000000E-11
      9.99993571673325E-01   9.99993571664140E-01   0.00000000000000E+00  -1.48889631233291E-15   9.58962460419173E-08
     -4.06300887337919E-09   9.18332356796418E-08   7.52715254878719E-28   0.00000000000000E+00   9.18332307160270E-12
      0.00000000000000E+00   1.48153949149114E-19   2.78831266799857E-09  -9.46215474880591E-08  -9.18332348199124E-08
     -9.48367452099679E-30
      2.05000000000000E-11
      9.99993571673203E-01   9.99993571664015E-01   0.00000000000000E+00   2.03441895765211E-15   9.58962425495551E-08
     -4.06300890200827E-09   9.18332356819658E-08   1.70769648126967E-28   0.00000000000000E+00   9.18332280465019E-12
      0.00000000000000E+00   2.54272477102579E-18   2.78831266577018E-09  -9.46215474947042E-08  -9.18332348263913E-08
     -2.80639348070313E-29
      2.10000000000000E-11
      9.99993571673872E-01   9.99993571664691E-01   0.00000000000000E+00  -1.91355638992850E-15   9.58962464776167E-08
     -4.06300886879401E-09   9.18332356952663E-08   5.71503282733576E-28   0.00000000000000E+00   9.18332376194788E-12
      0.00000000000000E+00   5.48658677145193E-18   2.78831266269382E-09  -9.46215474631736E-08  -9.18332347949932E-08
     -2.18705147116865E-29
      2.15000000000000E-11
      9.99993571673339E-01   9.99993571664153E-01   0.00000000000000E+00  -9.76669698792551E-16   9.58962455356978E-08
     -4.06300887692009E-09   9.18332356821080E-08   1.99774087645742E-29   0.00000000000000E+00   9.18332304863025E-12
      0.00000000000000E+00   2.43796456576019E-18   2.78831266582934E-09  -9.46215474975619E-08  -9.18332348292946E-08
      2.53543135153179E-29
      2.20000000000000E-11
      9.99993571673503E-01   9.99993571664325E-01   0.00000000000000E+00   1.92851231766908E-15   9.58962426573264E-08
     -4.06300890070355E-09   9.18332356851352E-08   5.49375716894885E-28   0.00000000000000E+00   9.18332312130368E-12
      0.00000000000000E+00   5.27654791714674E-19   2.78831266768305E-09  -9.46215474919338E-08  -9.18332348237231E-08
      4.93538163847792E-30
      2.25000000000000E-11
      9.99993571673772E-01   9.99993571664594E-01   0.00000000000000E+00   1.17672690327260E-15   9.58962434112325E-08
     -4.06300889435053E-09   9.18332356936089E-08  -8.03339206243989E-28   0.00000000000000E+00   9.18332369074776E-12
      0.00000000000000E+00   1.31745203702120E-18   2.78831266685480E-09  -9.46215474531965E-08  -9.18332347850243E-08
     -1.06449407888739E-30
      2.30000000000000E-11
      9.99993571673667E-01   9.99993571664482E-01   0.00000000000000E+00  -1.90150131063656E-15   9.58962464598091E-08
     -4.06300886938003E-09   9.18332356889278E-08  -6.24603997310802E-28   0.00000000000000E+00   9.18332364909263E-12
      0.00000000000000E+00  -2.69167366729503E-18   2.78831267081857E-09  -9.46215474303468E-08  -9.18332347622199E-08
      3.58057099262124E-30
      2.35000000000000E-11
      9.99993571673393E-01   9.99993571664204E-01   0.00000000000000E+00   8.97150516233597E-16   9.58962436780478E-08
     -4.06300889234096E-09   9.18332356828574E-08  -1.67548948712151E-28   0.00000000000000E+00   9.18332297266681E-12
      0.00000000000000E+00   4.75210747683085E-18   2.78831266360095E-09  -9.46215474569722E-08  -9.18332347886191E-08
     -5.12892601645745E-30
      2.40000000000000E-11
      9.99993571673695E-01   9.99993571664515E-01   0.00000000000000E+00   7.34446753633530E-16   9.58962438463208E-08
     -4.06300889094943E-09   9.18332356898181E-08  -1.60793040268303E-27   0.00000000000000E+00   9.18332351463852E-12
      0.00000000000000E+00   3.49520967261246E-18   2.78831266470529E-09  -9.46215474214609E-08  -9.18332347532604E-08
     -2.84510235629904E-29
      2.45000000000000E-11
      9.99993571673515E-01   9.99993571664329E-01   0.00000000000000E+00   8.90535260084695E-16   9.58962436884797E-08
     -4.06300889238164E-09   9.18332356866333E-08   4.22005371398921E-28   0.00000000000000E+00   9.18332337347455E-12
      0.00000000000000E+00   6.32770995038412E-18   2.78831266206277E-09  -9.46215473949855E-08  -9.18332347265950E-08
      1.16126626787716E-29
      2.50000000000000E-11
      9.99993571673516E-01   9.99993571664329E-01   0.00000000000000E+00  -1.25285866061956E-15   9.58962458113083E-08
     -4.06300887531935E-09   9.18332356831303E-08  -1.31669752404925E-27   0.00000000000000E+00   9.18332346031692E-12
      0.00000000000000E+00  -3.24986479729811E-18   2.78831267133130E-09  -9.46215473611334E-08  -9.18332346930520E-08
      1.10320295448330E-29
      2.55000000000000E-11
      9.99993571673108E-01   9.99993571663921E-01   0.00000000000000E+00   9.08630105654940E-16   9.58962436631392E-08
     -4.06300889319227E-09   9.18332356785771E-08  -1.60647881984819E-28   0.00000000000000E+00   9.18332277984493E-12
      0.00000000000000E+00  -2.65272125840875E-18   2.78831267099606E-09  -9.46215473472053E-08  -9.18332346788619E-08
     -2.22576034676455E-30
      2.60000000000000E-11
      9.99993571673621E-01   9.99993571664436E-01   0.00000000000000E+00   1.80020538123173E-15   9.58962427883872E-08
     -4.06300889975670E-09   9.18332356888359E-08  -6.40438346734252E-28   0.00000000000000E+00   9.18332336261279E-12
      0.00000000000000E+00   5.07521891824471E-19   2.78831266768305E-09  -9.46215473108026E-08  -9.18332346426121E-08
     -4.83860944948816E-31
      2.65000000000000E-11
      9.99993571673522E-01   9.99993571664332E-01   0.00000000000000E+00   2.38992770856259E-15   9.58962422027934E-08
     -4.06300890466265E-09   9.18332356880585E-08  -7.96120605771534E-28   0.00000000000000E+00   9.18332349775217E-12
      0.00000000000000E+00   2.48526391940782E-18   2.78831266584906E-09  -9.46215472684363E-08  -9.18332346001020E-08
     -2.43865916254203E-29
      2.70000000000000E-11
      9.99993571673657E-01   9.99993571664470E-01   0.00000000000000E+00   1.54932342272234E-15   9.58962430387166E-08
     -4.06300889778857E-09   9.18332356902514E-08   2.87110988209003E-28   0.00000000000000E+00   9.18332368921581E-12
      0.00000000000000E+00   2.90926451924143E-18   2.78831266527718E-09  -9.46215472225283E-08  -9.18332345543418E-08
      1.64512721282597E-30
      2.75000000000000E-11
      9.99993571673457E-01   9.99993571664278E-01   0.00000000000000E+00  -1.38089597173151E-15   9.58962459415802E-08
     -4.06300887406034E-09   9.18332356866239E-08   6.34976766318143E-29   0.00000000000000E+00   9.18332343658938E-12
      0.00000000000000E+00  -5.17149392707589E-18   2.78831267338221E-09  -9.46215471904248E-08  -9.18332345222140E-08
      8.22563606412987E-30
      2.80000000000000E-11
      9.99993571673302E-01   9.99993571664123E-01   0.00000000000000E+00   1.41287994328859E-15   9.58962431646110E-08
     -4.06300889677214E-09   9.18332356807188E-08   2.00838581724630E-28   0.00000000000000E+00   9.18332293151707E-12
      0.00000000000000E+00  -3.26303326915762E-18   2.78831267142990E-09  -9.46215472053332E-08  -9.18332345371663E-08
     -3.04832395317754E-29
      2.85000000000000E-11
      9.99993571673664E-01   9.99993571664474E-01   0.00000000000000E+00  -5.25169838861531E-16   9.58962450969215E-08
     -4.06300888067011E-09   9.18332356910816E-08  -5.98838401992278E-28   0.00000000000000E+00   9.18332349457668E-12
      0.00000000000000E+00  -1.05247542413150E-18   2.78831266916207E-09  -9.46215471791860E-08  -9.18332345110764E-08
      1.62577277502802E-29
      2.90000000000000E-11
      9.99993571673560E-01   9.99993571664376E-01   0.00000000000000E+00   1.84459937596988E-15   9.58962427411768E-08
     -4.06300889992245E-09   9.18332356858538E-08  -1.80407553324166E-28   0.00000000000000E+00   9.18332333924582E-12
      0.00000000000000E+00  -2.35687995950711E-18   2.78831267052277E-09  -9.46215471943287E-08  -9.18332345261628E-08
      6.77405322928342E-30
      2.95000000000000E-11
      9.99993571673772E-01   9.99993571664594E-01   0.00000000000000E+00   1.72051217437930E-15   9.58962428711729E-08
     -4.06300889884385E-09   9.18332356928412E-08  -3.69972175031488E-28   0.00000000000000E+00   9.18332365800674E-12
      0.00000000000000E+00  -1.33284981710890E-18   2.78831266947759E-09  -9.46215471672997E-08  -9.18332344991550E-08
     -3.58057099262124E-30
      3.00000000000000E-11
      9.99993571673984E-01   9.99993571664799E-01   0.00000000000000E+00  -5.51181251734869E-16   9.58962451028176E-08
     -4.06300888294394E-09   9.18332356686924E-08  -3.40027230800968E-28   0.00000000000000E+00   9.18332445334552E-12
      0.00000000000000E+00  -9.17902973715186E-18   2.78831267681354E-09  -9.46215472258087E-08  -9.18332345581742E-08
      1.23868401906897E-29
      3.05000000000000E-11
      9.99993571673282E-01   9.99993571664094E-01   0.00000000000000E+00   1.71689977913231E-15   9.58962428714688E-08
     -4.06300889968656E-09   9.18332356886820E-08   3.05252749513678E-28   0.00000000000000E+00   9.18332308941475E-12
      0.00000000000000E+00   1.78845820569717E-18   2.78831266667732E-09  -9.46215472561478E-08  -9.18332345876820E-08
     -7.16114198524247E-30
      3.10000000000000E-11
      9.99993571673701E-01   9.99993571664517E-01   0.00000000000000E+00  -2.22900808380344E-15   9.58962467841092E-08
     -4.06300886691860E-09   9.18332356881825E-08  -3.58226450592856E-28   0.00000000000000E+00   9.18332358524784E-12
      0.00000000000000E+00   5.65138276574633E-18   2.78831266263466E-09  -9.46215472050858E-08  -9.18332345367998E-08
     -2.39995028694613E-29
      3.15000000000000E-11
      9.99993571673255E-01   9.99993571664076E-01   0.00000000000000E+00   1.60785689994578E-15   9.58962429707999E-08
     -4.06300889840921E-09   9.18332356802476E-08   2.56573314320921E-28   0.00000000000000E+00   9.18332279635061E-12
      0.00000000000000E+00  -2.18387527212443E-18   2.78831267038473E-09  -9.46215472401683E-08  -9.18332345719675E-08
     -7.64500293019129E-30
      3.20000000000000E-11
      9.99993571673753E-01   9.99993571664566E-01   0.00000000000000E+00  -1.44293131198933E-15   9.58962460067557E-08
     -4.06300887321872E-09   9.18332356906057E-08  -1.31953718296992E-27   0.00000000000000E+00   9.18332354539820E-12
      0.00000000000000E+00   1.43090481623080E-18   2.78831266665759E-09  -9.46215471937410E-08  -9.18332345256525E-08
     -3.58057099262124E-30
      3.25000000000000E-11
      9.99993571672870E-01   9.99993571663684E-01   0.00000000000000E+00  -7.77887261145466E-16   9.58962453301732E-08
     -4.06300887992026E-09   9.18332356723657E-08  -3.53669085317619E-28   0.00000000000000E+00   9.18332258177946E-12
      0.00000000000000E+00  -1.37435988194690E-18   2.78831266983256E-09  -9.46215471668530E-08  -9.18332344983947E-08
      2.70962129171337E-30
      3.30000000000000E-11
      9.99993571673109E-01   9.99993571663921E-01   0.00000000000000E+00   1.09325716187433E-15   9.58962434789913E-08
     -4.06300889509264E-09   9.18332356771558E-08   1.19301359412761E-27   0.00000000000000E+00   9.18332265818361E-12
      0.00000000000000E+00  -6.08462894621622E-19   2.78831266884655E-09  -9.46215471197394E-08  -9.18332344515013E-08
     -8.51595263109916E-30
      3.35000000000000E-11
      9.99993571673735E-01   9.99993571664550E-01   0.00000000000000E+00  -1.52589093927691E-15   9.58962460910797E-08
     -4.06300887239319E-09   9.18332356927956E-08  -5.21033562044508E-28   0.00000000000000E+00   9.18332343568053E-12
      0.00000000000000E+00   6.76111166398620E-18   2.78831266135284E-09  -9.46215471111781E-08  -9.18332344430641E-08
      2.49672247593589E-29
      3.40000000000000E-11