DF-ISE text

Info {
  version   = 1.0
  type      = xyplot
  datasets  = [
    "time"
    "ntype OuterVoltage" "ntype InnerVoltage" "ntype QuasiFermiPotential" "ntype DisplacementCurrent" "ntype eCurrent"
    "ntype hCurrent" "ntype TotalCurrent" "ntype Charge" "ptype OuterVoltage" "ptype InnerVoltage"
    "ptype QuasiFermiPotential" "ptype DisplacementCurrent" "ptype eCurrent" "ptype hCurrent" "ptype TotalCurrent"
    "ptype Charge" ]
  functions = [
    Time
    OuterVoltage InnerVoltage QuasiFermiPotential DisplacementCurrent eCurrent
    hCurrent TotalCurrent Charge OuterVoltage InnerVoltage
    QuasiFermiPotential DisplacementCurrent eCurrent hCurrent TotalCurrent
    Charge ]
}

Data {
      1.00000000000000E-13
      9.99997369298397E-01   9.99997369294639E-01   0.00000000000000E+00   1.52698501117317E-15   1.76661618406958E-08
      1.99153186030481E-08   3.75814819707290E-08  -3.13490482101432E-28   0.00000000000000E+00   3.75813767471835E-12
      0.00000000000000E+00  -1.14675399239632E-17   2.78833893836215E-10  -3.78603164421620E-08  -3.75814825597933E-08
     -1.36448786475566E-29
      2.30000000000000E-13
      9.99997369295965E-01   9.99997369292206E-01   0.00000000000000E+00   1.85804897828621E-15   1.76661616543195E-08
      1.99153186029138E-08   3.75814821152823E-08  -2.67907756956347E-28   0.00000000000000E+00   3.75814980445772E-12
      0.00000000000000E+00   9.54619161789630E-18   2.78833881846288E-10  -3.78603165906582E-08  -3.75814826992658E-08
     -4.54829288251887E-30
      3.99000000000000E-13
      9.99997369296010E-01   9.99997369292244E-01   0.00000000000000E+00   1.73143485149862E-15   1.76661617870567E-08
      1.99153186066761E-08   3.75814821251676E-08   4.67585072413100E-28   0.00000000000000E+00   3.75814867029516E-12
      0.00000000000000E+00  -3.02010779812192E-19   2.78833891055656E-10  -3.78603165312631E-08  -3.75814826405095E-08
      5.12892601645745E-30
      6.18700000000000E-13
      9.99997369295811E-01   9.99997369292052E-01   0.00000000000000E+00  -2.08164664076835E-15   1.76661655689320E-08
      1.99153186405728E-08   3.75814821278581E-08  -2.73100189721829E-28   0.00000000000000E+00   3.75814799641988E-12
      0.00000000000000E+00  -5.10718097691160E-18   2.78833895630760E-10  -3.78603164511081E-08  -3.75814825605845E-08
     -2.47736803813794E-29
      9.04310000000000E-13
      9.99997369296253E-01   9.99997369292491E-01   0.00000000000000E+00  -1.61765888308104E-15   1.76661650833795E-08
      1.99153186368215E-08   3.75814821025421E-08  -5.33532295078718E-28   0.00000000000000E+00   3.75814801690884E-12
      0.00000000000000E+00  -9.20410081398938E-18   2.78833898845165E-10  -3.78603165126929E-08  -3.75814826230519E-08
      2.81607069960211E-29
      1.27560300000000E-12
      9.99997369296470E-01   9.99997369292711E-01   0.00000000000000E+00   4.70460567088947E-16   1.76661630260816E-08
      1.99153186204114E-08   3.75814821169536E-08   9.88558151839490E-29   0.00000000000000E+00   3.75814861492380E-12
      0.00000000000000E+00   2.73451440448629E-18   2.78833887367965E-10  -3.78603166126573E-08  -3.75814827225548E-08
      2.80639348070313E-30
      1.75828390000000E-12
      9.99997369296024E-01   9.99997369292271E-01   0.00000000000000E+00   1.96448361004941E-15   1.76661615631527E-08
      1.99153186107884E-08   3.75814821384247E-08  -2.84204798408405E-28   0.00000000000000E+00   3.75814796935746E-12
      0.00000000000000E+00  -4.14249104481208E-18   2.78833894664466E-10  -3.78603165547455E-08  -3.75814826642236E-08
     -1.28707011356385E-29
      2.25828390000000E-12
      9.99997369296592E-01   9.99997369292836E-01   0.00000000000000E+00  -1.86224040178256E-15   1.76661653621453E-08
      1.99153186434708E-08   3.75814821433757E-08  -1.25237728381102E-27   0.00000000000000E+00   3.75814851205004E-12
      0.00000000000000E+00  -6.58798600638958E-18   2.78833896695655E-10  -3.78603164761053E-08  -3.75814825859976E-08
      5.70955915039602E-30
      2.75828390000000E-12
      9.99997369295647E-01   9.99997369291894E-01   0.00000000000000E+00  -2.04784501398038E-15   1.76661655286238E-08
      1.99153186436573E-08   3.75814821244361E-08   1.54651030398359E-28   0.00000000000000E+00   3.75814738057825E-12
      0.00000000000000E+00   9.63565341146420E-18   2.78833881136358E-10  -3.78603164308402E-08  -3.75814825400682E-08
     -1.39351952145259E-29
      3.25828390000000E-12
      9.99997369295930E-01   9.99997369292177E-01   0.00000000000000E+00  -2.46233529418488E-15   1.76661659445244E-08
      1.99153186474494E-08   3.75814821296386E-08   7.46506714128845E-29   0.00000000000000E+00   3.75814737208597E-12
      0.00000000000000E+00   6.71815427694579E-18   2.78833883838036E-10  -3.78603163820888E-08  -3.75814824915327E-08
     -1.55803224273519E-29
      3.75828390000000E-12
      9.99997369295593E-01   9.99997369291831E-01   0.00000000000000E+00  -2.02875060017313E-15   1.76661655090219E-08
      1.99153186432786E-08   3.75814821235499E-08   3.63561017510916E-29   0.00000000000000E+00   3.75814711884740E-12
      0.00000000000000E+00   8.06394790694547E-18   2.78833882615379E-10  -3.78603163263337E-08  -3.75814824356544E-08
      7.93531949716058E-30
      4.25828390000000E-12
      9.99997369296049E-01   9.99997369292288E-01   0.00000000000000E+00  -2.19541143240224E-15   1.76661656818700E-08
      1.99153186454837E-08   3.75814821319423E-08  -1.03229918126286E-27   0.00000000000000E+00   3.75814747341163E-12
      0.00000000000000E+00  -7.42112515120222E-18   2.78833897661948E-10  -3.78603162907574E-08  -3.75814824005166E-08
      2.92252010749085E-29
      4.75828390000000E-12
      9.99997369295485E-01   9.99997369291724E-01   0.00000000000000E+00   1.06434687495905E-15   1.76661624390484E-08
      1.99153186176703E-08   3.75814821210656E-08  -2.42709186182685E-28   0.00000000000000E+00   3.75814704682163E-12
      0.00000000000000E+00   1.12892859933688E-18   2.78833889556915E-10  -3.78603162138902E-08  -3.75814823232043E-08
     -8.80626919806845E-30
      5.00000000000000E-12
      9.99997369296519E-01   9.99997369292758E-01   0.00000000000000E+00  -6.21202989351778E-16   1.76661641378317E-08
      1.99153186334392E-08   3.75814821500679E-08  -1.07209069572309E-27   0.00000000000000E+00   3.75814825965083E-12
      0.00000000000000E+00  -5.81095111865294E-18   2.78833895985725E-10  -3.78603161538581E-08  -3.75814822636833E-08
     -3.09671004767242E-30
      5.50000000000000E-12
      9.99997369296209E-01   9.99997369292445E-01   0.00000000000000E+00  -6.61215412698739E-18   1.76661635123835E-08
      1.99153186280133E-08   3.75814821337847E-08   2.98672240662374E-28   0.00000000000000E+00   3.75814795319399E-12
      0.00000000000000E+00  -3.85830176973103E-18   2.78833894092578E-10  -3.78603161380709E-08  -3.75814822478367E-08
      1.03546242219047E-29
      6.00000000000000E-12
      9.99997369295947E-01   9.99997369292192E-01   0.00000000000000E+00   5.72390181678003E-16   1.76661629359402E-08
      1.99153186224815E-08   3.75814821308118E-08  -7.28715752009258E-28   0.00000000000000E+00   3.75814769473233E-12
      0.00000000000000E+00  -4.90374363999531E-19   2.78833890897894E-10  -3.78603160648307E-08  -3.75814821744231E-08
     -8.61272482008892E-30
      6.50000000000000E-12
      9.99997369296073E-01   9.99997369292318E-01   0.00000000000000E+00  -9.75852886306255E-16   1.76661644742991E-08
      1.99153186351732E-08   3.75814821336195E-08  -4.37228846379374E-29   0.00000000000000E+00   3.75814781005114E-12
      0.00000000000000E+00  -5.63092151813260E-18   2.78833895966005E-10  -3.78603159934223E-08  -3.75814821030872E-08
     -1.85802602860345E-29
      7.00000000000000E-12
      9.99997369296258E-01   9.99997369292506E-01   0.00000000000000E+00   6.50327220731123E-16   1.76661628627188E-08
      1.99153186226123E-08   3.75814821356583E-08  -1.07267737711884E-27   0.00000000000000E+00   3.75814784934081E-12
      0.00000000000000E+00  -2.66112004754749E-18   2.78833892929082E-10  -3.78603159855355E-08  -3.75814820952676E-08
     -7.45145855221176E-30
      7.50000000000000E-12
      9.99997369295939E-01   9.99997369292180E-01   0.00000000000000E+00  -1.09151951115849E-15   1.76661645861722E-08
      1.99153186358389E-08   3.75814821304916E-08  -8.20640259156815E-28   0.00000000000000E+00   3.75814779328318E-12
      0.00000000000000E+00   3.78555546750973E-18   2.78833886796077E-10  -3.78603159031209E-08  -3.75814820125393E-08
      1.43222839704849E-29
      8.00000000000000E-12
      9.99997369295821E-01   9.99997369292056E-01   0.00000000000000E+00  -2.33623303125572E-15   1.76661658177822E-08
      1.99153186458533E-08   3.75814821274025E-08  -1.08681821323497E-27   0.00000000000000E+00   3.75814744593909E-12
      0.00000000000000E+00  -2.73403916436012E-18   2.78833893146005E-10  -3.78603158519066E-08  -3.75814819614947E-08
      7.54823074120153E-30
      8.50000000000000E-12
      9.99997369295548E-01   9.99997369291786E-01   0.00000000000000E+00  -1.08738915169798E-15   1.76661645739850E-08
      1.99153186352571E-08   3.75814821218530E-08   1.02041888299892E-27   0.00000000000000E+00   3.75814700353996E-12
      0.00000000000000E+00   3.05220810846188E-18   2.78833887604608E-10  -3.78603158067577E-08  -3.75814819161009E-08
      1.30642455136180E-29
      9.00000000000000E-12
      9.99997369296262E-01   9.99997369292507E-01   0.00000000000000E+00  -7.32249221688326E-16   1.76661642347174E-08
      1.99153186338008E-08   3.75814821362690E-08  -3.37169427094864E-28   0.00000000000000E+00   3.75814768216028E-12
      0.00000000000000E+00  -8.03541189755174E-18   2.78833897997193E-10  -3.78603157945817E-08  -3.75814819046199E-08
     -6.29019228433460E-30
      9.50000000000000E-12
      9.99997369296012E-01   9.99997369292253E-01   0.00000000000000E+00  -9.73990722677355E-16   1.76661644696845E-08
      1.99153186351917E-08   3.75814821308855E-08   8.79816452724055E-28   0.00000000000000E+00   3.75814768368431E-12
      0.00000000000000E+00  -4.76370765627402E-18   2.78833895137753E-10  -3.78603157618945E-08  -3.75814818715205E-08
     -9.67721889897631E-31
      1.00000000000000E-11
      9.99997369296675E-01   9.99997369292914E-01   0.00000000000000E+00   1.36183868281885E-15   1.76661621377818E-08
      1.99153186141185E-08   3.75814821137390E-08  -2.38682555881439E-28   0.00000000000000E+00   3.75814869714865E-12
      0.00000000000000E+00   1.88722174464353E-18   2.78833887999014E-10  -3.78603158471904E-08  -3.75814819573041E-08
     -8.41918044210939E-30
      1.05000000000000E-11
      9.99997369296296E-01   9.99997369292536E-01   0.00000000000000E+00   1.74981326853178E-15   1.76661617824225E-08
      1.99153186129683E-08   3.75814821452040E-08  -9.36346531748607E-29   0.00000000000000E+00   3.75814825129990E-12
      0.00000000000000E+00  -1.94438017072667E-19   2.78833890779572E-10  -3.78603158270866E-08  -3.75814819365015E-08
      5.61278696140626E-30
      1.10000000000000E-11
      9.99997369296096E-01   9.99997369292335E-01   0.00000000000000E+00  -1.16534862640542E-15   1.76661646593147E-08
      1.99153186364925E-08   3.75814821304585E-08  -4.92384457907180E-28   0.00000000000000E+00   3.75814807421458E-12
      0.00000000000000E+00  -1.89183157386732E-18   2.78833892278313E-10  -3.78603157272911E-08  -3.75814818369046E-08
      3.09671004767242E-30
      1.15000000000000E-11
      9.99997369296005E-01   9.99997369292243E-01   0.00000000000000E+00   3.99462029557452E-16   1.76661631085518E-08
      1.99153186240435E-08   3.75814821320573E-08  -3.78161521524747E-28   0.00000000000000E+00   3.75814758576365E-12
      0.00000000000000E+00  -7.44878844690973E-18   2.78833897701389E-10  -3.78603157148172E-08  -3.75814818245646E-08
     -6.67728104029366E-30
      1.20000000000000E-11
      9.99997369296165E-01   9.99997369292412E-01   0.00000000000000E+00  -8.99999693119432E-16   1.76661643985535E-08
      1.99153186345906E-08   3.75814821331444E-08   7.94381730500624E-28   0.00000000000000E+00   3.75814790892005E-12
      0.00000000000000E+00  -6.00189396061591E-18   2.78833896163207E-10  -3.78603156566890E-08  -3.75814817665277E-08
     -1.50964614824031E-29
      1.25000000000000E-11
      9.99997369296163E-01   9.99997369292398E-01   0.00000000000000E+00  -5.26772508420452E-16   1.76661640292716E-08
      1.99153186318728E-08   3.75814821343719E-08   4.71250319071087E-28   0.00000000000000E+00   3.75814775442830E-12
      0.00000000000000E+00  -8.36051934749548E-18   2.78833898529640E-10  -3.78603156473092E-08  -3.75814817571401E-08
     -8.90304138705821E-30
      1.30000000000000E-11
      9.99997369295976E-01   9.99997369292224E-01   0.00000000000000E+00   7.22358532823338E-16   1.76661627853167E-08
      1.99153186210483E-08   3.75814821287235E-08   4.15669817150998E-28   0.00000000000000E+00   3.75814766369421E-12
      0.00000000000000E+00  -7.28789374201465E-19   2.78833891114817E-10  -3.78603155986591E-08  -3.75814817082731E-08
     -1.35481064585668E-29
      1.35000000000000E-11
      9.99997369296224E-01   9.99997369292471E-01   0.00000000000000E+00  -1.78857145973960E-15   1.76661652832050E-08
      1.99153186419617E-08   3.75814821365953E-08   1.58292084009099E-28   0.00000000000000E+00   3.75814791372674E-12
      0.00000000000000E+00  -1.79087760997582E-18   2.78833892100831E-10  -3.78603155509033E-08  -3.75814816605933E-08
      2.12898815777479E-30
      1.40000000000000E-11
      9.99997369296050E-01   9.99997369292288E-01   0.00000000000000E+00   1.29333316426155E-15   1.76661622189702E-08
      1.99153186168029E-08   3.75814821291063E-08   6.62450995598518E-28   0.00000000000000E+00   3.75814763216874E-12
      0.00000000000000E+00   1.92526687692532E-18   2.78833888492021E-10  -3.78603155495879E-08  -3.75814816591706E-08
     -1.55803224273519E-29
      1.45000000000000E-11
      9.99997369296132E-01   9.99997369292378E-01   0.00000000000000E+00   1.76364237601104E-16   1.76661633326726E-08
      1.99153186257096E-08   3.75814821347465E-08   6.61598190683045E-28   0.00000000000000E+00   3.75814788498159E-12
      0.00000000000000E+00  -1.56113357189398E-18   2.78833891923348E-10  -3.78603154812375E-08  -3.75814815908753E-08
      9.96753546594560E-30
      1.50000000000000E-11
      9.99997369296634E-01   9.99997369292882E-01   0.00000000000000E+00   3.04525029058931E-16   1.76661631958928E-08
      1.99153186236212E-08   3.75814821240390E-08  -1.87444705942265E-28   0.00000000000000E+00   3.75814865397359E-12
      0.00000000000000E+00   5.18131843659312E-18   2.78833884981812E-10  -3.78603155281120E-08  -3.75814816379488E-08
      1.54835502383621E-29
      1.55000000000000E-11
      9.99997369296110E-01   9.99997369292350E-01   0.00000000000000E+00  -1.94898721763553E-15   1.76661654439253E-08
      1.99153186430204E-08   3.75814821379584E-08  -3.07959346674486E-28   0.00000000000000E+00   3.75814790662005E-12
      0.00000000000000E+00  -1.03738438994341E-18   2.78833891548663E-10  -3.78603155186737E-08  -3.75814816281624E-08
      1.61609555612904E-29
      1.60000000000000E-11
      9.99997369295989E-01   9.99997369292236E-01   0.00000000000000E+00   1.34533863078253E-15   1.76661621647591E-08
      1.99153186160247E-08   3.75814821261225E-08   1.78538640424301E-28   0.00000000000000E+00   3.75814752836430E-12
      0.00000000000000E+00  -1.63202211725846E-18   2.78833892002229E-10  -3.78603154968008E-08  -3.75814816064306E-08
     -2.27414644125943E-29
      1.65000000000000E-11
      9.99997369295979E-01   9.99997369292224E-01   0.00000000000000E+00   8.34414715233456E-16   1.76661626783145E-08
      1.99153186198069E-08   3.75814821325362E-08   1.63446715138257E-28   0.00000000000000E+00   3.75814774341398E-12
      0.00000000000000E+00  -2.00298591901221E-18   2.78833892495236E-10  -3.78603154098950E-08  -3.75814815194028E-08
      1.95479821759322E-29
      1.70000000000000E-11
      9.99997369296295E-01   9.99997369292536E-01   0.00000000000000E+00   2.19561456731362E-17   1.76661634861359E-08
      1.99153186272372E-08   3.75814821353292E-08  -2.07884806735447E-28   0.00000000000000E+00   3.75814806018198E-12
      0.00000000000000E+00   9.57591572760544E-19   2.78833889320272E-10  -3.78603153706150E-08  -3.75814814803372E-08
      1.74189940181574E-30
      1.75000000000000E-11
      9.99997369296154E-01   9.99997369292395E-01   0.00000000000000E+00  -1.88511512613446E-15   1.76661653764227E-08
      1.99153186428057E-08   3.75814821341133E-08  -2.99505388726958E-28   0.00000000000000E+00   3.75814784038583E-12
      0.00000000000000E+00  -2.51335061086409E-18   2.78833892810761E-10  -3.78603153556320E-08  -3.75814814653346E-08
     -2.29350087905739E-29
      1.80000000000000E-11
      9.99997369296159E-01   9.99997369292397E-01   0.00000000000000E+00  -3.21741388935598E-16   1.76661638224651E-08
      1.99153186300756E-08   3.75814821307993E-08   6.27275816966192E-28   0.00000000000000E+00   3.75814767458530E-12
      0.00000000000000E+00  -2.49098408238092E-18   2.78833892791040E-10  -3.78603153677630E-08  -3.75814814774630E-08
     -1.11288017338228E-29
      1.85000000000000E-11
      9.99997369296132E-01   9.99997369292378E-01   0.00000000000000E+00  -2.26090386375420E-15   1.76661657482879E-08
      1.99153186456122E-08   3.75814821329963E-08  -1.14431601414942E-28   0.00000000000000E+00   3.75814773250360E-12
      0.00000000000000E+00  -2.97326640314132E-18   2.78833893343208E-10  -3.78603153404286E-08  -3.75814814500587E-08
      1.70319052621983E-29
      1.90000000000000E-11
      9.99997369295595E-01   9.99997369291833E-01   0.00000000000000E+00  -6.83187163529473E-16   1.76661641708829E-08
      1.99153186317612E-08   3.75814821194569E-08   6.14715089248411E-28   0.00000000000000E+00   3.75814710407646E-12
      0.00000000000000E+00   8.78896560269111E-18   2.78833881925169E-10  -3.78603152979585E-08  -3.75814814072443E-08
     -3.33864052014683E-29
      1.95000000000000E-11
      9.99997369296133E-01   9.99997369292378E-01   0.00000000000000E+00  -1.09040911260370E-15   1.76661645878484E-08
      1.99153186361408E-08   3.75814821335801E-08  -1.14933153525690E-27   0.00000000000000E+00   3.75814754096535E-12
      0.00000000000000E+00  -1.97112754910011E-18   2.78833892238873E-10  -3.78603152733169E-08  -3.75814813830491E-08
      6.87082541827318E-30
      2.00000000000000E-11
      9.99997369296250E-01   9.99997369292489E-01   0.00000000000000E+00   3.09414243312160E-16   1.76661631958534E-08
      1.99153186246703E-08   3.75814821299379E-08  -1.11315083309836E-27   0.00000000000000E+00   3.75814784975909E-12
      0.00000000000000E+00   2.01763195562761E-18   2.78833888275098E-10  -3.78603152786536E-08  -3.75814813883608E-08
      8.70949700907868E-31
      2.05000000000000E-11
      9.99997369296038E-01   9.99997369292284E-01   0.00000000000000E+00  -2.15067090120482E-15   1.76661656379727E-08
      1.99153186443944E-08   3.75814821316962E-08  -1.11237060732463E-27   0.00000000000000E+00   3.75814774306328E-12
      0.00000000000000E+00  -8.66734301367628E-18   2.78833898943766E-10  -3.78603152333419E-08  -3.75814813430654E-08
     -1.87738046640140E-29
      2.10000000000000E-11
      9.99997369295736E-01   9.99997369291974E-01   0.00000000000000E+00  -1.48244004992840E-15   1.76661649660833E-08
      1.99153186385227E-08   3.75814821221659E-08  -8.26803437943101E-28   0.00000000000000E+00   3.75814721040432E-12
      0.00000000000000E+00   9.87808204054983E-18   2.78833880801114E-10  -3.78603152072365E-08  -3.75814813165573E-08
      1.48061449154338E-29
      2.15000000000000E-11
      9.99997369295698E-01   9.99997369291942E-01   0.00000000000000E+00   1.59468967235132E-15   1.76661619162639E-08
      1.99153186132883E-08   3.75814821242419E-08  -9.36416086759443E-28   0.00000000000000E+00   3.75814713327041E-12
      0.00000000000000E+00   1.25145587273733E-17   2.78833878178317E-10  -3.78603151592508E-08  -3.75814812685579E-08
      5.22569820544721E-30
      2.20000000000000E-11
      9.99997369296345E-01   9.99997369292583E-01   0.00000000000000E+00   9.65975759066322E-16   1.76661625518484E-08
      1.99153186193530E-08   3.75814821371771E-08  -1.49186425851344E-27   0.00000000000000E+00   3.75814807215441E-12
      0.00000000000000E+00  -4.75449231819123E-18   2.78833894861669E-10  -3.78603151038329E-08  -3.75814812137257E-08
     -1.71286774511881E-29
      2.25000000000000E-11
      9.99997369295925E-01   9.99997369292163E-01   0.00000000000000E+00   1.90936520837258E-15   1.76661616088249E-08
      1.99153186110454E-08   3.75814821292355E-08  -9.53357268094463E-28   0.00000000000000E+00   3.75814777903783E-12
      0.00000000000000E+00  -5.24157888459067E-18   2.78833895611040E-10  -3.78603150545715E-08  -3.75814811642020E-08
     -1.48061449154338E-29
      2.30000000000000E-11
      9.99997369296083E-01   9.99997369292330E-01   0.00000000000000E+00   6.28073380322593E-16   1.76661628828138E-08
      1.99153186215636E-08   3.75814821324508E-08  -1.53967879226710E-27   0.00000000000000E+00   3.75814792084487E-12
      0.00000000000000E+00   5.21908706552878E-19   2.78833889813279E-10  -3.78603149865125E-08  -3.75814810961773E-08
      8.99981357604797E-30
      2.35000000000000E-11
      9.99997369296255E-01   9.99997369292492E-01   0.00000000000000E+00  -2.05304692759589E-15   1.76661655449325E-08
      1.99153186441153E-08   3.75814821360009E-08   6.68484136755848E-30   0.00000000000000E+00   3.75814795223592E-12
      0.00000000000000E+00  -3.52978123160847E-19   2.78833890602090E-10  -3.78603149828224E-08  -3.75814810925733E-08
     -1.46126005374542E-29
      2.40000000000000E-11
      9.99997369295979E-01   9.99997369292224E-01   0.00000000000000E+00   5.26213604430259E-17   1.76661634478982E-08
      1.99153186266975E-08   3.75814821272171E-08   8.34595111222230E-28   0.00000000000000E+00   3.75814750027199E-12
      0.00000000000000E+00   1.80008430732904E-18   2.78833888649783E-10  -3.78603150034859E-08  -3.75814811130360E-08
      9.09658576503773E-30
      2.45000000000000E-11
      9.99997369296143E-01   9.99997369292382E-01   0.00000000000000E+00   2.45857991214502E-15   1.76661610676020E-08
      1.99153186070793E-08   3.75814821332612E-08   1.03030627899585E-28   0.00000000000000E+00   3.75814772409234E-12
      0.00000000000000E+00  -3.35294870102778E-19   2.78833890602090E-10  -3.78603149775468E-08  -3.75814810872800E-08
     -3.05800117207652E-29
      2.50000000000000E-11
      9.99997369296290E-01   9.99997369292526E-01   0.00000000000000E+00   7.84479282372563E-16   1.76661627282463E-08
      1.99153186202939E-08   3.75814821330195E-08   1.85659863881585E-27   0.00000000000000E+00   3.75814826720763E-12
      0.00000000000000E+00   3.88637982045773E-18   2.78833886500273E-10  -3.78603149209993E-08  -3.75814810306127E-08
      1.00643076549354E-29
      2.55000000000000E-11
      9.99997369296438E-01   9.99997369292677E-01   0.00000000000000E+00  -1.07622213202798E-15   1.76661645793293E-08
      1.99153186363851E-08   3.75814821394922E-08   1.93468925913423E-27   0.00000000000000E+00   3.75814817265695E-12
      0.00000000000000E+00   2.64725167659308E-18   2.78833887663769E-10  -3.78603149371599E-08  -3.75814810468489E-08
     -1.12255739228125E-29
      2.60000000000000E-11
      9.99997369295968E-01   9.99997369292207E-01   0.00000000000000E+00  -1.44702694867807E-15   1.76661649351619E-08
      1.99153186386697E-08   3.75814821268046E-08   4.50587944656320E-28   0.00000000000000E+00   3.75814762958261E-12
      0.00000000000000E+00  -4.01461256759102E-18   2.78833894388383E-10  -3.78603149293333E-08  -3.75814810389596E-08
     -2.09027928217888E-29
      2.65000000000000E-11
      9.99997369295681E-01   9.99997369291915E-01   0.00000000000000E+00  -2.06670320752272E-15   1.76661655466876E-08
      1.99153186431004E-08   3.75814821230848E-08   3.01129347023442E-28   0.00000000000000E+00   3.75814715668682E-12
      0.00000000000000E+00   3.98439161593180E-18   2.78833886618594E-10  -3.78603148968315E-08  -3.75814810062285E-08
     -1.92576656089629E-29
      2.70000000000000E-11
      9.99997369296078E-01   9.99997369292321E-01   0.00000000000000E+00  -1.46649237381108E-15   1.76661649567359E-08
      1.99153186390524E-08   3.75814821292959E-08   1.07580735260648E-27   0.00000000000000E+00   3.75814738888982E-12
      0.00000000000000E+00   6.05887957210772E-19   2.78833889694957E-10  -3.78603149095646E-08  -3.75814810192638E-08
      5.70955915039602E-30
      2.75000000000000E-11
      9.99997369296006E-01   9.99997369292244E-01   0.00000000000000E+00  -1.64950783027754E-15   1.76661651379060E-08
      1.99153186404989E-08   3.75814821288971E-08   3.41646652901094E-28   0.00000000000000E+00   3.75814745540904E-12
      0.00000000000000E+00  -6.57595379046807E-18   2.78833896833697E-10  -3.78603149080171E-08  -3.75814810177594E-08
     -5.32247039443697E-30
      2.80000000000000E-11
      9.99997369296254E-01   9.99997369292492E-01   0.00000000000000E+00  -1.87029734205783E-15   1.76661653596999E-08
      1.99153186425876E-08   3.75814821319902E-08   4.22446894511187E-28   0.00000000000000E+00   3.75814766571746E-12
      0.00000000000000E+00   1.62828068135612E-18   2.78833888669503E-10  -3.78603149247283E-08  -3.75814810344305E-08
      2.82574791850108E-29
      2.85000000000000E-11
      9.99997369296142E-01   9.99997369292382E-01   0.00000000000000E+00   1.55869107526556E-15   1.76661619571243E-08
      1.99153186144733E-08   3.75814821302887E-08  -1.02085586991482E-27   0.00000000000000E+00   3.75814758145054E-12
      0.00000000000000E+00   6.18883614478955E-19   2.78833889734398E-10  -3.78603149369444E-08  -3.75814810465911E-08
      4.14184968876186E-29
      2.90000000000000E-11
      9.99997369296308E-01   9.99997369292553E-01   0.00000000000000E+00  -1.47180592565259E-15   1.76661649675623E-08
      1.99153186389754E-08   3.75814821347318E-08  -9.99502481588051E-28   0.00000000000000E+00   3.75814805531668E-12
      0.00000000000000E+00   1.81125677065867E-18   2.78833888511741E-10  -3.78603148745825E-08  -3.75814809842595E-08
     -1.12255739228125E-29
      2.95000000000000E-11
      9.99997369296014E-01   9.99997369292254E-01   0.00000000000000E+00  -1.54345484225784E-15   1.76661650318898E-08
      1.99153186394836E-08   3.75814821279185E-08  -1.40174364545127E-27   0.00000000000000E+00   3.75814751662090E-12
      0.00000000000000E+00   2.01673331975268E-18   2.78833888393419E-10  -3.78603148764943E-08  -3.75814809860842E-08
      1.17094348677613E-29
      3.00000000000000E-11
      9.99997369296409E-01   9.99997369292651E-01   0.00000000000000E+00  -5.93686914394628E-16   1.76661640727548E-08
      1.99153186292325E-08   3.75814821083004E-08   9.00059985008351E-28   0.00000000000000E+00   3.75814827300778E-12
      0.00000000000000E+00   4.55144813447022E-18   2.78833885474819E-10  -3.78603149552864E-08  -3.75814810652602E-08
     -5.51601477241650E-30
      3.05000000000000E-11
      9.99997369296206E-01   9.99997369292445E-01   0.00000000000000E+00  -1.40668565916380E-15   1.76661649080860E-08
      1.99153186383197E-08   3.75814821397200E-08  -3.95211571572381E-28   0.00000000000000E+00   3.75814778664465E-12
      0.00000000000000E+00   2.62240093835951E-18   2.78833887841251E-10  -3.78603149774264E-08  -3.75814810869627E-08
     -4.16120412655982E-29
      3.10000000000000E-11
      9.99997369295809E-01   9.99997369292052E-01   0.00000000000000E+00  -2.00388414445248E-15   1.76661654817882E-08
      1.99153186426197E-08   3.75814821205238E-08   9.89262774340572E-28   0.00000000000000E+00   3.75814737601893E-12
      0.00000000000000E+00   9.80416491947225E-18   2.78833880919435E-10  -3.78603149293307E-08  -3.75814810386071E-08
      4.03540028087312E-29
      3.15000000000000E-11
      9.99997369296209E-01   9.99997369292445E-01   0.00000000000000E+00  -6.93624944507335E-16   1.76661641939951E-08
      1.99153186329141E-08   3.75814821332843E-08   5.95923139798961E-28   0.00000000000000E+00   3.75814743623257E-12
      0.00000000000000E+00   8.59999284706933E-18   2.78833881866008E-10  -3.78603149498524E-08  -3.75814810593864E-08
      5.12892601645745E-30
      3.20000000000000E-11
      9.99997369296371E-01   9.99997369292616E-01   0.00000000000000E+00   1.87226236925185E-15   1.76661616488570E-08
      1.99153186120115E-08   3.75814821331309E-08   2.65090779017474E-28   0.00000000000000E+00   3.75814791716061E-12
      0.00000000000000E+00  -7.14750780874592E-18   2.78833897247823E-10  -3.78603149421755E-08  -3.75814810520752E-08
      5.70955915039602E-30
      3.25000000000000E-11
      9.99997369296533E-01   9.99997369292773E-01   0.00000000000000E+00   1.11292428323725E-15   1.76661624088764E-08
      1.99153186184172E-08   3.75814821402179E-08   9.43965829566097E-28   0.00000000000000E+00   3.75814830992370E-12
      0.00000000000000E+00  -9.18320320953253E-18   2.78833899259290E-10  -3.78603149037615E-08  -3.75814810136854E-08
      8.22563606412987E-30
      3.30000000000000E-11
      9.99997369295906E-01   9.99997369292147E-01   0.00000000000000E+00   9.07535852303354E-16   1.76661625989602E-08
      1.99153186187264E-08   3.75814821252224E-08  -4.95332985540462E-28   0.00000000000000E+00   3.75814780026580E-12
      0.00000000000000E+00  -4.59199475796155E-18   2.78833895137753E-10  -3.78603148249001E-08  -3.75814809343543E-08
      3.04832395317754E-29
      3.35000000000000E-11
      9.99997369296395E-01   9.99997369292633E-01   0.00000000000000E+00  -1.28532805540259E-15   1.76661647853272E-08
      1.99153186379001E-08   3.75814821378993E-08  -2.30856105096892E-28   0.00000000000000E+00   3.75814797963917E-12
      0.00000000000000E+00  -4.35971466575190E-18   2.78833894526425E-10  -3.78603148049944E-08  -3.75814809148277E-08
      3.67734318161100E-30
      3.40000000000000E-11