DF-ISE text

Info {
  version   = 1.0
  type      = xyplot
  datasets  = [
    "time"
    "ntype OuterVoltage" "ntype InnerVoltage" "ntype QuasiFermiPotential" "ntype DisplacementCurrent" "ntype eCurrent"
    "ntype hCurrent" "ntype TotalCurrent" "ntype Charge" "ptype OuterVoltage" "ptype InnerVoltage"
    "ptype QuasiFermiPotential" "ptype DisplacementCurrent" "ptype eCurrent" "ptype hCurrent" "ptype TotalCurrent"
    "ptype Charge" ]
  functions = [
    Time
    OuterVoltage InnerVoltage QuasiFermiPotential DisplacementCurrent eCurrent
    hCurrent TotalCurrent Charge OuterVoltage InnerVoltage
    QuasiFermiPotential DisplacementCurrent eCurrent hCurrent TotalCurrent
    Charge ]
}

Data {
      1.00000000000000E-14
      1.50000000000000E+01   1.50000000000000E+01   0.00000000000000E+00  -2.64773935189127E-12   6.13444392760965E-09
     -1.87011883808612E-24   6.13179618825775E-09   1.25440949977980E-29   0.00000000000000E+00   0.00000000000000E+00
      0.00000000000000E+00   3.54712653475383E-10  -6.48650884173313E-09  -1.67685768643404E-24  -6.13179618825775E-09
     -6.97533938238213E-28
      2.30000000000000E-14
      1.50000000000000E+01   1.50000000000000E+01   0.00000000000000E+00  -6.02993513639518E-12   6.13451157438739E-09
     -5.90674872717557E-24   6.12848163925099E-09  -8.21112023578140E-29   0.00000000000000E+00   0.00000000000000E+00
      0.00000000000000E+00   2.69129113085994E-11  -6.15539455055958E-09  -2.44459815237780E-24  -6.12848163925098E-09
     -3.79830841784820E-29
      3.99000000000000E-14
      1.50000000000000E+01   1.50000000000000E+01   0.00000000000000E+00  -6.53713432450618E-12   6.13455478064446E-09
     -9.22085667374443E-24   6.12801764631994E-09  -1.09836434503381E-29   0.00000000000000E+00   0.00000000000000E+00
      0.00000000000000E+00   5.86259287590081E-11  -6.18664357507893E-09   2.78866119271375E-24  -6.12801764631992E-09
     -9.59544639927996E-28
      6.18700000000000E-14
      1.50000000000000E+01   1.50000000000000E+01   0.00000000000000E+00  -5.66302607875455E-12   6.13457792965116E-09
     -1.48596921550802E-23   6.12891490357239E-09   6.94824316946499E-29   0.00000000000000E+00   0.00000000000000E+00
      0.00000000000000E+00   8.20326866301774E-11  -6.21094759020256E-09  -2.49396992287822E-24  -6.12891490357239E-09
     -4.97796140163342E-28
      9.04310000000000E-14
      1.50000000000000E+01   1.50000000000000E+01   0.00000000000000E+00  -4.11715867064373E-12   6.13462389229069E-09
     -8.69135884141548E-25   6.13050673362004E-09   2.36003175898785E-29   0.00000000000000E+00   0.00000000000000E+00
      0.00000000000000E+00   3.60869275686196E-11  -6.16659366118869E-09  -9.83606952221861E-25  -6.13050673362007E-09
     -2.27608188503923E-28
      1.27560300000000E-13
      1.50000000000000E+01   1.50000000000000E+01   0.00000000000000E+00  -1.68303167424444E-12   6.13464761298179E-09
      9.63010997841302E-24   6.13296458130756E-09   5.51238581532938E-29   0.00000000000000E+00   0.00000000000000E+00
      0.00000000000000E+00   2.99370005054164E-11  -6.16290158181299E-09   7.84060274782104E-24  -6.13296458130756E-09
     -5.88471681246750E-28
      1.75828390000000E-13
      1.50000000000000E+01   1.50000000000000E+01   0.00000000000000E+00   9.72913154560521E-13   6.13468049141580E-09
      1.43291395461929E-23   6.13565340457037E-09   9.17037455914243E-29   0.00000000000000E+00   0.00000000000000E+00
      0.00000000000000E+00  -2.02573853421302E-11  -6.11539601922827E-09   6.37780920852145E-24  -6.13565340457039E-09
      3.23219111225809E-28
      2.38576907000000E-13
      1.50000000000000E+01   1.50000000000000E+01   0.00000000000000E+00   1.59045089038038E-12   6.13463704506531E-09
      4.42056855635586E-24   6.13622749595570E-09  -1.75835067394400E-28   0.00000000000000E+00   0.00000000000000E+00
      0.00000000000000E+00   2.43689980096814E-11  -6.16059649396537E-09   4.07476253380904E-24  -6.13622749595569E-09
      4.94022024792741E-29
      3.20149979100000E-13
      1.50000000000000E+01   1.50000000000000E+01   0.00000000000000E+00   9.98419277885319E-13   6.13462995358498E-09
     -2.85528014365433E-24   6.13562837286286E-09   1.81786557017270E-28   0.00000000000000E+00   0.00000000000000E+00
      0.00000000000000E+00   1.34623315142716E-11  -6.14909070437715E-09  -2.73567502277976E-24  -6.13562837286288E-09
     -2.49865791971568E-28
      4.26194972830000E-13
      1.50000000000000E+01   1.50000000000000E+01   0.00000000000000E+00   9.12773782514595E-13   6.13463223939593E-09
      1.19369063116868E-23   6.13554501317845E-09   5.09263644558629E-30   0.00000000000000E+00   0.00000000000000E+00
      0.00000000000000E+00   6.96507086713770E-12  -6.14251008404558E-09   4.39300118815946E-24  -6.13554501317844E-09
     -8.68530396183124E-29
      5.64053464679000E-13
      1.50000000000000E+01   1.50000000000000E+01   0.00000000000000E+00   9.17267259554805E-13   6.13463609899512E-09
      1.12797805157885E-23   6.13555336625469E-09  -2.87776297008308E-29   0.00000000000000E+00   0.00000000000000E+00
      0.00000000000000E+00  -1.42829128157313E-12  -6.13412507497314E-09   4.88411710240248E-24  -6.13555336625471E-09
      1.23868401906897E-29
      7.43269504082700E-13
      1.50000000000000E+01   1.50000000000000E+01   0.00000000000000E+00  -1.49201897737149E-13   6.13462051600964E-09
      1.14052989262410E-23   6.13447131411191E-09  -8.23289397830410E-29   0.00000000000000E+00   0.00000000000000E+00
      0.00000000000000E+00   1.02507706360631E-11  -6.14472208474798E-09  -4.67309921486224E-25  -6.13447131411192E-09
     -5.25956847159363E-29
      9.76250355307510E-13
      1.50000000000000E+01   1.50000000000000E+01   0.00000000000000E+00   4.62018352646053E-13   6.13463543506604E-09
      4.71063210992252E-24   6.13509745341869E-09   1.25247405600001E-28   0.00000000000000E+00   0.00000000000000E+00
      0.00000000000000E+00  -4.40971417644331E-12  -6.13068773924223E-09  -1.57691155594885E-23  -6.13509745341869E-09
     -4.47958462833614E-28
      1.27912546189976E-12
      1.50000000000000E+01   1.50000000000000E+01   0.00000000000000E+00  -2.22329452256375E-13   6.13462519966231E-09
     -9.17233695205692E-24   6.13440287021005E-09   5.64544757519031E-29   0.00000000000000E+00   0.00000000000000E+00
      0.00000000000000E+00   3.34223755998734E-12  -6.13774510777006E-09   1.09486836819666E-23  -6.13440287021007E-09
     -2.44833638144101E-29
      1.67286310046969E-12
      1.50000000000000E+01   1.50000000000000E+01   0.00000000000000E+00  -2.83650123554553E-13   6.13462500360888E-09
     -6.98051126365141E-24   6.13434135348532E-09   6.15471121974894E-29   0.00000000000000E+00   0.00000000000000E+00
      0.00000000000000E+00   7.52020842120375E-12  -6.14186156190652E-09  -1.04848034581350E-23  -6.13434135348533E-09
     -1.78351144308133E-28
      2.18472203061060E-12
      1.50000000000000E+01   1.50000000000000E+01   0.00000000000000E+00   1.90477740248910E-13   6.13462922733901E-09
      4.06616363272532E-24   6.13481970507926E-09  -8.56433872559404E-30   0.00000000000000E+00   0.00000000000000E+00
      0.00000000000000E+00   1.05655708139431E-13  -6.13492536078738E-09  -7.28868524832179E-24  -6.13481970507925E-09
      6.07245485910764E-29
      2.85013863979378E-12
      1.50000000000000E+01   1.50000000000000E+01   0.00000000000000E+00   3.88384140319840E-14   6.13462951680793E-09
     -1.47352285211862E-24   6.13466835522196E-09   1.17106445201237E-28   0.00000000000000E+00   0.00000000000000E+00
      0.00000000000000E+00  -1.30840609383356E-12  -6.13335994912812E-09  -3.81255785406967E-24  -6.13466835522196E-09
      2.36220913324012E-28
      3.71518023173191E-12
      1.50000000000000E+01   1.50000000000000E+01   0.00000000000000E+00  -1.36333450724007E-13   6.13462767709404E-09
     -6.71892667716221E-24   6.13449134364331E-09   2.36728967316208E-29   0.00000000000000E+00   0.00000000000000E+00
      0.00000000000000E+00   3.04569477613396E-12  -6.13753703841944E-09   4.62308514054569E-24  -6.13449134364330E-09
     -2.36704774268961E-28
      4.71518023173191E-12
      1.50000000000000E+01   1.50000000000000E+01   0.00000000000000E+00   9.30730732999563E-14   6.13462894861811E-09
     -7.61443197526436E-24   6.13472202169140E-09   1.37331832700098E-28   0.00000000000000E+00   0.00000000000000E+00
      0.00000000000000E+00  -1.24102544201768E-12  -6.13348099624941E-09  -5.37717673086985E-25  -6.13472202169142E-09
     -1.21303938898668E-28
      5.71518023173191E-12
      1.50000000000000E+01   1.50000000000000E+01   0.00000000000000E+00   3.55508655106391E-14   6.13462953899538E-09
      3.59995239390182E-24   6.13466508986089E-09   4.90634998178099E-29   0.00000000000000E+00   0.00000000000000E+00
      0.00000000000000E+00  -8.67218016274906E-13  -6.13379787184463E-09   7.56283032832020E-24  -6.13466508986090E-09
      3.04832395317754E-30
      6.71518023173191E-12
      1.50000000000000E+01   1.50000000000000E+01   0.00000000000000E+00   4.63083718558973E-14   6.13462929684425E-09
     -5.69368386237388E-24   6.13467560521610E-09  -7.76596816642849E-30   0.00000000000000E+00   0.00000000000000E+00
      0.00000000000000E+00  -9.57762218619482E-13  -6.13371784299750E-09   4.48164259122118E-24  -6.13467560521612E-09
     -7.90628784046365E-29
      7.71518023173191E-12
      1.50000000000000E+01   1.50000000000000E+01   0.00000000000000E+00   4.39048866536287E-14   6.13462935879036E-09
     -6.21052437600174E-24   6.13467326367700E-09   8.22684571649224E-29   0.00000000000000E+00   0.00000000000000E+00
      0.00000000000000E+00  -9.13900618179098E-13  -6.13375936305883E-09   3.09622448338797E-24  -6.13467326367701E-09
      3.28541581620246E-29
      8.71518023173191E-12
      1.50000000000000E+01   1.50000000000000E+01   0.00000000000000E+00   4.51421068174761E-14   6.13462934886990E-09
      4.92897085751633E-24   6.13467449097672E-09   1.75581040398301E-28   0.00000000000000E+00   0.00000000000000E+00
      0.00000000000000E+00  -9.42481101911233E-13  -6.13373200987482E-09   1.00391037091629E-24  -6.13467449097673E-09
     -1.44480878161716E-28
      9.71518023173191E-12
      1.50000000000000E+01   1.50000000000000E+01   0.00000000000000E+00   4.45090549846855E-14   6.13462935190787E-09
      3.29090286228353E-24   6.13467386096286E-09   1.54811309336374E-28   0.00000000000000E+00   0.00000000000000E+00
      0.00000000000000E+00  -9.36180468088740E-13  -6.13373768049478E-09  -1.32376394586076E-23  -6.13467386096288E-09
      1.64174018621133E-28
      1.07151802317319E-11
      1.50000000000000E+01   1.50000000000000E+01   0.00000000000000E+00   4.52758098657658E-14   6.13462935277320E-09
     -5.56289156912928E-24   6.13467462858306E-09  -2.77131356219434E-29   0.00000000000000E+00   0.00000000000000E+00
      0.00000000000000E+00  -9.39980563780651E-13  -6.13373464801928E-09  -4.86791124342427E-24  -6.13467462858307E-09
      2.09850491824301E-28
      1.17151802317319E-11
      1.50000000000000E+01   1.50000000000000E+01   0.00000000000000E+00   4.67610829592578E-14   6.13462937075632E-09
     -1.43607828429456E-23   6.13467613183927E-09  -1.95963682704270E-30   0.00000000000000E+00   0.00000000000000E+00
      0.00000000000000E+00  -9.50211259556155E-13  -6.13372592057972E-09   1.00408671637216E-23  -6.13467613183927E-09
      1.07900990723586E-28
      1.27151802317319E-11
      1.50000000000000E+01   1.50000000000000E+01   0.00000000000000E+00   4.56749279305611E-14   6.13462936944939E-09
      1.36909997283462E-24   6.13467504437732E-09   3.36646252448138E-29   0.00000000000000E+00   0.00000000000000E+00
      0.00000000000000E+00  -9.44228174685976E-13  -6.13373081620264E-09   4.01625127636302E-24  -6.13467504437732E-09
      1.07223585400658E-28
      1.37151802317319E-11
      1.50000000000000E+01   1.50000000000000E+01   0.00000000000000E+00   4.59010132385637E-14   6.13462936576568E-09
     -7.88339999766253E-24   6.13467526677891E-09   1.46150198421790E-28   0.00000000000000E+00   0.00000000000000E+00
      0.00000000000000E+00  -9.62041182170099E-13  -6.13371322559676E-09   2.00170839408094E-24  -6.13467526677893E-09
     -4.01120723362568E-29
      1.47151802317319E-11
      1.50000000000000E+01   1.50000000000000E+01   0.00000000000000E+00   4.54954926156583E-14   6.13462936367403E-09
     -2.93122405586088E-24   6.13467485916664E-09   7.13694893799503E-30   0.00000000000000E+00   0.00000000000000E+00
      0.00000000000000E+00  -9.53353595249080E-13  -6.13372150557139E-09  -9.40141711561874E-25  -6.13467485916664E-09
      8.83046224531589E-29
      1.57151802317319E-11
      1.50000000000000E+01   1.50000000000000E+01   0.00000000000000E+00   4.56127868256132E-14   6.13462936539069E-09
     -1.05477655842421E-26   6.13467497817752E-09  -6.04100389768596E-29   0.00000000000000E+00   0.00000000000000E+00
      0.00000000000000E+00  -9.22103650846410E-13  -6.13375287452668E-09  -7.67918536742137E-25  -6.13467497817753E-09
      1.25513529119723E-28
      1.67151802317319E-11
      1.50000000000000E+01   1.50000000000000E+01   0.00000000000000E+00   4.44666543868168E-14   6.13462935191084E-09
      1.54872842073427E-23   6.13467381856525E-09   1.21908765079854E-28   0.00000000000000E+00   0.00000000000000E+00
      0.00000000000000E+00  -9.20307566796156E-13  -6.13375351099846E-09   2.93867959563614E-24  -6.13467381856525E-09
      2.92542327316054E-28
      1.77151802317319E-11
      1.50000000000000E+01   1.50000000000000E+01   0.00000000000000E+00   4.68935778607395E-14   6.13462937661154E-09
      7.54270716929152E-24   6.13467627018941E-09  -1.50214630359360E-28   0.00000000000000E+00   0.00000000000000E+00
      0.00000000000000E+00  -9.37815253263973E-13  -6.13373845493616E-09   9.74547204426974E-24  -6.13467627018942E-09
      1.03643014408036E-28
      1.87151802317319E-11
      1.50000000000000E+01   1.50000000000000E+01   0.00000000000000E+00   4.57253409905497E-14   6.13462937556648E-09
      1.26847428916095E-23   6.13467510090749E-09  -2.32495184047906E-29   0.00000000000000E+00   0.00000000000000E+00
      0.00000000000000E+00  -9.42775890724990E-13  -6.13373232501678E-09   3.47487896730993E-24  -6.13467510090750E-09
      6.82727793322779E-29
      1.97151802317319E-11
      1.50000000000000E+01   1.50000000000000E+01   0.00000000000000E+00   4.42395114254328E-14   6.13462934995787E-09
     -3.50607728020207E-24   6.13467358946930E-09   8.57885455394250E-29   0.00000000000000E+00   0.00000000000000E+00
      0.00000000000000E+00  -9.27684722317211E-13  -6.13374590474697E-09   1.38915308810748E-24  -6.13467358946929E-09
      7.40307245771688E-30
      2.07151802317319E-11
      1.50000000000000E+01   1.50000000000000E+01   0.00000000000000E+00   4.68036219535319E-14   6.13462936763966E-09
      6.52906689664585E-24   6.13467617126162E-09  -6.97001691198769E-29   0.00000000000000E+00   0.00000000000000E+00
      0.00000000000000E+00  -9.58295317555785E-13  -6.13371787594405E-09  -6.81489486309509E-24  -6.13467617126161E-09
      1.19755583874832E-28
      2.17151802317319E-11
      1.50000000000000E+01   1.50000000000000E+01   0.00000000000000E+00   4.63946058044871E-14   6.13462938094461E-09
      8.33062525843440E-24   6.13467577555043E-09   3.79830841784820E-30   0.00000000000000E+00   0.00000000000000E+00
      0.00000000000000E+00  -9.68821417221339E-13  -6.13370695413321E-09   2.31243897583922E-24  -6.13467577555043E-09
      1.64899810038556E-28
      2.27151802317319E-11
      1.50000000000000E+01   1.50000000000000E+01   0.00000000000000E+00   4.66186125093861E-14   6.13462938008333E-09
     -3.03986604137857E-24   6.13467599869583E-09  -9.44738495012563E-29   0.00000000000000E+00   0.00000000000000E+00
      0.00000000000000E+00  -9.57012240774425E-13  -6.13371898645506E-09   3.89960576168619E-24  -6.13467599869583E-09
      1.12884758456559E-28
      2.37151802317319E-11
      1.50000000000000E+01   1.50000000000000E+01   0.00000000000000E+00   4.35456428263929E-14   6.13462935058808E-09
     -4.17796994791829E-24   6.13467289623090E-09   1.28223150411436E-29   0.00000000000000E+00   0.00000000000000E+00
      0.00000000000000E+00  -9.09937246661846E-13  -6.13376295898426E-09   2.09530127264690E-24  -6.13467289623092E-09
      3.36767217684376E-28
      2.47151802317319E-11
      1.50000000000000E+01   1.50000000000000E+01   0.00000000000000E+00   4.34199997707162E-14   6.13462933341808E-09
      2.74663815813664E-24   6.13467275341786E-09   7.65709945381501E-30   0.00000000000000E+00   0.00000000000000E+00
      0.00000000000000E+00  -9.48590487798403E-13  -6.13372416293006E-09   1.17936173883574E-24  -6.13467275341785E-09
      1.65480443172495E-29
      2.57151802317319E-11
      1.50000000000000E+01   1.50000000000000E+01   0.00000000000000E+00   4.74194850594989E-14   6.13462937063314E-09
     -6.51430002482791E-24   6.13467679011819E-09  -2.24753408928725E-29   0.00000000000000E+00   0.00000000000000E+00
      0.00000000000000E+00  -9.57274184005196E-13  -6.13371951593420E-09  -1.74545125325596E-24  -6.13467679011821E-09
      3.80556633202244E-28
      2.67151802317319E-11
      1.50000000000000E+01   1.50000000000000E+01   0.00000000000000E+00   4.40343016102601E-14   6.13462935805593E-09
     -1.37004927173720E-23   6.13467339235753E-09   8.97803983352527E-29   0.00000000000000E+00   0.00000000000000E+00
      0.00000000000000E+00  -9.20685370194401E-13  -6.13375270698733E-09  -9.10118073657260E-24  -6.13467339235753E-09
     -9.12561742173466E-29
      2.77151802317319E-11
      1.50000000000000E+01   1.50000000000000E+01   0.00000000000000E+00   4.60439083802936E-14   6.13462935675777E-09
     -1.39378174430175E-23   6.13467540066614E-09   9.00102322841034E-29   0.00000000000000E+00   0.00000000000000E+00
      0.00000000000000E+00  -9.32761579206715E-13  -6.13374263908695E-09   8.65928292146496E-25  -6.13467540066616E-09
      3.27138384879894E-28
      2.87151802317319E-11
      1.50000000000000E+01   1.50000000000000E+01   0.00000000000000E+00   4.52204239373807E-14   6.13462936129859E-09
     -1.09823335263129E-23   6.13467458172252E-09  -6.38333551623725E-29   0.00000000000000E+00   0.00000000000000E+00
      0.00000000000000E+00  -9.37190056418166E-13  -6.13373739166611E-09   5.84320461986191E-24  -6.13467458172253E-09
      4.77086891719532E-29
      2.97151802317319E-11
      1.50000000000000E+01   1.50000000000000E+01   0.00000000000000E+00   4.46045176796103E-14   6.13462935314154E-09
     -5.57554888783037E-24   6.13467395765921E-09  -3.36283356739427E-29   0.00000000000000E+00   0.00000000000000E+00
      0.00000000000000E+00  -9.38080948946496E-13  -6.13373587671028E-09   5.21477410263997E-24  -6.13467395765922E-09
      4.09926992560637E-28
      3.07151802317319E-11
      1.50000000000000E+01   1.50000000000000E+01   0.00000000000000E+00   4.47754409729337E-14   6.13462935255256E-09
     -4.13261455590605E-24   6.13467412799352E-09   1.00292277364266E-28   0.00000000000000E+00   0.00000000000000E+00
      0.00000000000000E+00  -9.34020011396047E-13  -6.13374010798214E-09  -4.82765668492503E-24  -6.13467412799354E-09
     -4.04023889032261E-29
      3.17151802317319E-11
      1.50000000000000E+01   1.50000000000000E+01   0.00000000000000E+00   4.28539363463481E-14   6.13462933417982E-09
     -2.10638878717314E-24   6.13467218811617E-09   7.35831532030911E-29   0.00000000000000E+00   0.00000000000000E+00
      0.00000000000000E+00  -8.96846670804399E-13  -6.13377534144536E-09  -1.56271945495083E-24  -6.13467218811616E-09
     -2.55381806743985E-28
      3.27151802317319E-11
      1.50000000000000E+01   1.50000000000000E+01   0.00000000000000E+00   4.48787455014915E-14   6.13462934371292E-09
     -4.75176839570106E-24   6.13467422245841E-09   3.61444125876765E-29   0.00000000000000E+00   0.00000000000000E+00
      0.00000000000000E+00  -9.35233913197804E-13  -6.13373898854522E-09  -8.09080161879409E-24  -6.13467422245842E-09
     -1.09352573558432E-29
      3.37151802317319E-11
      1.50000000000000E+01   1.50000000000000E+01   0.00000000000000E+00   4.55003240385520E-14   6.13462936404934E-09
     -1.71548859462113E-23   6.13467486437336E-09   4.89425345815727E-29   0.00000000000000E+00   0.00000000000000E+00
      0.00000000000000E+00  -9.26162064594206E-13  -6.13374870230878E-09   4.33760172757184E-24  -6.13467486437337E-09
      1.18497545417965E-28
      3.47151802317319E-11
      1.50000000000000E+01   1.50000000000000E+01   0.00000000000000E+00   4.49122320257142E-14   6.13462935634311E-09
      2.27198870684575E-24   6.13467426857514E-09   1.72399654685263E-28   0.00000000000000E+00   0.00000000000000E+00
      0.00000000000000E+00  -9.37211824242379E-13  -6.13373705675091E-09  -6.72407695332639E-25  -6.13467426857515E-09
     -7.49984464670664E-29
      3.57151802317319E-11
      1.50000000000000E+01   1.50000000000000E+01   0.00000000000000E+00   4.44420572593964E-14   6.13462935196199E-09
     -8.90020459998347E-24   6.13467379401924E-09   7.98854420110495E-29   0.00000000000000E+00   0.00000000000000E+00
      0.00000000000000E+00  -9.15285646206033E-13  -6.13375850837303E-09  -5.23404643604634E-24  -6.13467379401925E-09
      2.46672309734906E-28
      3.67151802317319E-11
      1.50000000000000E+01   1.50000000000000E+01   0.00000000000000E+00   4.49139788615256E-14   6.13462935236482E-09
      5.58926098308988E-24   6.13467426634368E-09   8.63570821497399E-29   0.00000000000000E+00   0.00000000000000E+00
      0.00000000000000E+00  -9.27205373191470E-13  -6.13374706097050E-09  -7.81812642761294E-24  -6.13467426634370E-09
      2.54220540476108E-28
      3.77151802317319E-11
      1.50000000000000E+01   1.50000000000000E+01   0.00000000000000E+00   4.65789903219081E-14   6.13462936763826E-09
     -1.20212884363607E-23   6.13467594662857E-09   7.57968170262320E-29   0.00000000000000E+00   0.00000000000000E+00
      0.00000000000000E+00  -9.66731332051636E-13  -6.13370921529652E-09  -5.30247300516364E-24  -6.13467594662857E-09
      2.90993972292218E-28
      3.87151802317319E-11
      1.50000000000000E+01   1.50000000000000E+01   0.00000000000000E+00   4.62016628075242E-14   6.13462937380058E-09
     -1.57741834312340E-23   6.13467557546337E-09   7.35226705849725E-29   0.00000000000000E+00   0.00000000000000E+00
      0.00000000000000E+00  -9.48089585357802E-13  -6.13372748587803E-09  -1.21296420064132E-24  -6.13467557546339E-09
      9.12561742173466E-29
      3.97151802317319E-11
      1.50000000000000E+01   1.50000000000000E+01   0.00000000000000E+00   4.75623485707580E-14   6.13462938620288E-09
     -1.59081400541539E-23   6.13467694855143E-09  -9.67963820370106E-29   0.00000000000000E+00   0.00000000000000E+00
      0.00000000000000E+00  -9.74058574818505E-13  -6.13370288997660E-09  -5.62276867981404E-24  -6.13467694855143E-09
      1.06159091321770E-28
      4.07151802317319E-11
      1.50000000000000E+01   1.50000000000000E+01   0.00000000000000E+00   4.80326608596874E-14   6.13462939267790E-09
      1.38629283073694E-23   6.13467742533877E-09  -4.46603652187757E-29   0.00000000000000E+00   0.00000000000000E+00
      0.00000000000000E+00  -9.78130094047242E-13  -6.13369929524473E-09   6.13122866406755E-24  -6.13467742533877E-09
      4.84828666838713E-29
      4.17151802317319E-11
      1.50000000000000E+01   1.50000000000000E+01   0.00000000000000E+00   4.54528950383179E-14   6.13462937503124E-09
     -1.03895491004785E-24   6.13467482792628E-09  -5.11199088338424E-29   0.00000000000000E+00   0.00000000000000E+00
      0.00000000000000E+00  -9.44975246821094E-13  -6.13372985267946E-09  -5.72063216737534E-24  -6.13467482792628E-09
      1.75157662071471E-29
      4.27151802317320E-11
      1.50000000000000E+01   1.50000000000000E+01   0.00000000000000E+00   4.45529406971477E-14   6.13462935413890E-09
     -2.58420256813931E-24   6.13467390707959E-09   1.08590492570138E-28   0.00000000000000E+00   0.00000000000000E+00
      0.00000000000000E+00  -9.08335201362153E-13  -6.13376557187823E-09  -1.28919446820259E-24  -6.13467390707959E-09
      1.64948196133051E-28
      4.37151802317320E-11
      1.50000000000000E+01   1.50000000000000E+01   0.00000000000000E+00   4.45812007670029E-14   6.13462934819337E-09
     -1.18229904433770E-23   6.13467392939412E-09   5.77246107323937E-29   0.00000000000000E+00   0.00000000000000E+00
      0.00000000000000E+00  -9.11624553864775E-13  -6.13376230484027E-09   2.25530799240520E-24  -6.13467392939413E-09
      1.69835191677034E-29
      4.47151802317320E-11
      1.50000000000000E+01   1.50000000000000E+01   0.00000000000000E+00   4.75380130381851E-14   6.13462937781040E-09
     -4.32458388953925E-26   6.13467691582344E-09   7.86395000778063E-29   0.00000000000000E+00   0.00000000000000E+00
      0.00000000000000E+00  -9.60050993167255E-13  -6.13371686483026E-09   2.94486404725409E-24  -6.13467691582343E-09
      3.59073207246516E-28
      4.57151802317320E-11
      1.50000000000000E+01   1.50000000000000E+01   0.00000000000000E+00   4.63053969985198E-14   6.13462937791999E-09
     -4.12417634343866E-25   6.13467568331699E-09   8.20386232160717E-29   0.00000000000000E+00   0.00000000000000E+00
      0.00000000000000E+00  -9.46346288298896E-13  -6.13372933702869E-09   2.68596378470166E-24  -6.13467568331699E-09
      2.03802230012441E-28
      4.67151802317320E-11
      1.50000000000000E+01   1.50000000000000E+01   0.00000000000000E+00   4.51225695878804E-14   6.13462936394423E-09
     -1.54102855185777E-24   6.13467448651382E-09   3.21646563154725E-29   0.00000000000000E+00   0.00000000000000E+00
      0.00000000000000E+00  -9.23165947741762E-13  -6.13375132056607E-09  -3.52472643019257E-24  -6.13467448651382E-09
      3.71314889153721E-28
      4.77151802317320E-11
      1.50000000000000E+01   1.50000000000000E+01   0.00000000000000E+00   4.52849281122908E-14   6.13462935778749E-09
      8.04267125798459E-24   6.13467464271561E-09   3.34347912959632E-29   0.00000000000000E+00   0.00000000000000E+00
      0.00000000000000E+00  -9.36648074553727E-13  -6.13373799464104E-09  -8.27658238058842E-24  -6.13467464271560E-09
     -3.23702972170758E-29
      4.87151802317320E-11
      1.50000000000000E+01   1.50000000000000E+01   0.00000000000000E+00   4.39990783479985E-14   6.13462934865009E-09
     -3.43329769767080E-24   6.13467334772844E-09   7.76596816642849E-29   0.00000000000000E+00   0.00000000000000E+00
      0.00000000000000E+00  -8.99112483842491E-13  -6.13377423524460E-09  -8.28013813125217E-24  -6.13467334772845E-09
      1.35335906302184E-28
      4.97151802317320E-11
      1.50000000000000E+01   1.50000000000000E+01   0.00000000000000E+00   4.48126988688664E-14   6.13462934727883E-09
     -2.78461011423991E-24   6.13467415997770E-09   8.63570821497399E-29   0.00000000000000E+00   0.00000000000000E+00
      0.00000000000000E+00  -9.44585481679638E-13  -6.13372957449603E-09  -9.68293121075286E-26  -6.13467415997771E-09
      1.62674049691792E-28
      5.07151802317320E-11
      1.50000000000000E+01   1.50000000000000E+01   0.00000000000000E+00   4.51844513942548E-14   6.13462935933642E-09
      1.11806315192966E-24   6.13467454378781E-09   5.74342941654244E-29   0.00000000000000E+00   0.00000000000000E+00
      0.00000000000000E+00  -9.24036945124196E-13  -6.13375050684269E-09   2.98678317500959E-24  -6.13467454378781E-09
      3.71653591815185E-28
      5.17151802317320E-11
      1.50000000000000E+01   1.50000000000000E+01   0.00000000000000E+00   4.23088097531890E-14   6.13462934003835E-09
     -2.07263593730357E-24   6.13467164884810E-09  -3.87935512612713E-29   0.00000000000000E+00   0.00000000000000E+00
      0.00000000000000E+00  -8.74267246066220E-13  -6.13379738160203E-09  -6.12209413426276E-24  -6.13467164884810E-09
     -4.01120723362568E-29
      5.27151802317320E-11
      1.50000000000000E+01   1.50000000000000E+01   0.00000000000000E+00   4.50925882825353E-14   6.13462934185827E-09
      1.10646060978699E-24   6.13467443444655E-09   8.40466461376093E-29   0.00000000000000E+00   0.00000000000000E+00
      0.00000000000000E+00  -9.07483474516437E-13  -6.13376695097203E-09   2.00839551265251E-24  -6.13467443444655E-09
      2.40478889639561E-29
      5.37151802317320E-11
      1.50000000000000E+01   1.50000000000000E+01   0.00000000000000E+00   4.52775450657547E-14   6.13462935847617E-09
      7.67771856876981E-24   6.13467463602124E-09   1.62165995699596E-28   0.00000000000000E+00   0.00000000000000E+00
      0.00000000000000E+00  -9.36802057671893E-13  -6.13373783396356E-09   2.45208356375482E-24  -6.13467463602123E-09
      2.26543694425035E-28
      5.47151802317320E-11
      1.50000000000000E+01   1.50000000000000E+01   0.00000000000000E+00   4.74105037609768E-14   6.13462938035826E-09
     -6.46261597346513E-24   6.13467679086202E-09  -1.62335347030328E-29   0.00000000000000E+00   0.00000000000000E+00
      0.00000000000000E+00  -9.56326081530433E-13  -6.13372046478049E-09  -9.10575006158546E-25  -6.13467679086203E-09
      1.15062132708828E-28
      5.57151802317320E-11
      1.50000000000000E+01   1.50000000000000E+01   0.00000000000000E+00   4.50742650700432E-14   6.13462936910729E-09
      1.05477655842421E-23   6.13467444337238E-09   1.20807981430096E-28   0.00000000000000E+00   0.00000000000000E+00
      0.00000000000000E+00  -9.47799488131852E-13  -6.13372664388422E-09  -4.05174285946562E-24  -6.13467444337236E-09
      2.79381309613446E-28
      5.67151802317320E-11
      1.50000000000000E+01   1.50000000000000E+01   0.00000000000000E+00   4.58492497470335E-14   6.13462936099898E-09
      5.24540382504359E-24   6.13467521024873E-09   6.36277142607693E-29   0.00000000000000E+00   0.00000000000000E+00
      0.00000000000000E+00  -9.21822440028650E-13  -6.13375338780872E-09   6.92818651793380E-24  -6.13467521024875E-09
      9.03368384219439E-29
      5.77151802317320E-11