DF-ISE text

Info {
  version   = 1.0
  type      = xyplot
  datasets  = [
    "time"
    "ntype OuterVoltage" "ntype InnerVoltage" "ntype QuasiFermiPotential" "ntype DisplacementCurrent" "ntype eCurrent"
    "ntype hCurrent" "ntype TotalCurrent" "ntype Charge" "ptype OuterVoltage" "ptype InnerVoltage"
    "ptype QuasiFermiPotential" "ptype DisplacementCurrent" "ptype eCurrent" "ptype hCurrent" "ptype TotalCurrent"
    "ptype Charge" ]
  functions = [
    Time
    OuterVoltage InnerVoltage QuasiFermiPotential DisplacementCurrent eCurrent
    hCurrent TotalCurrent Charge OuterVoltage InnerVoltage
    QuasiFermiPotential DisplacementCurrent eCurrent hCurrent TotalCurrent
    Charge ]
}

Data {
      1.00000000000000E-13
      9.99997776323544E-01   9.99997776320370E-01   0.00000000000000E+00  -2.05771534960687E-16   9.65582196406546E-09
      2.21110278148764E-08   3.17668495731703E-08  -6.24567707739931E-28   0.00000000000000E+00   3.17667579536005E-12
      0.00000000000000E+00  -1.38679000346495E-17   2.77986160197684E-12  -3.17696300264059E-08  -3.17668501786718E-08
      7.25791417423224E-30
      2.30000000000000E-13
      9.99997776320602E-01   9.99997776317422E-01   0.00000000000000E+00  -1.14241412548638E-15   9.65582303353540E-09
      2.21110278247939E-08   3.17668497159152E-08   3.35004149366218E-28   0.00000000000000E+00   3.17668610606095E-12
      0.00000000000000E+00   1.22934683799525E-18   2.77985542953095E-12  -3.17696302350965E-08  -3.17668503784377E-08
     -3.87088755959053E-31
      3.99000000000000E-13
      9.99997776320028E-01   9.99997776316847E-01   0.00000000000000E+00   6.66556658078516E-16   9.65582123342932E-09
      2.21110278108473E-08   3.17668497108333E-08  -9.04544771141846E-28   0.00000000000000E+00   3.17668328789528E-12
      0.00000000000000E+00   3.05471392003619E-19   2.77985564645397E-12  -3.17696302278899E-08  -3.17668503719380E-08
     -1.98382987429014E-29
      6.18700000000000E-13
      9.99997776319939E-01   9.99997776316763E-01   0.00000000000000E+00  -1.98180339945899E-15   9.65582386500134E-09
      2.21110278336483E-08   3.17668497168463E-08  -6.20630289300410E-28   0.00000000000000E+00   3.17668397548846E-12
      0.00000000000000E+00   2.71792852408318E-18   2.77985361526570E-12  -3.17696301379044E-08  -3.17668502815712E-08
      5.99987571736531E-30
      9.04310000000000E-13
      9.99997776320856E-01   9.99997776317686E-01   0.00000000000000E+00  -1.04603885394967E-15   9.65582292213556E-09
      2.21110278257939E-08   3.17668497018906E-08   4.10494017105499E-28   0.00000000000000E+00   3.17668508865910E-12
      0.00000000000000E+00  -4.41498077205995E-20   2.77985552813232E-12  -3.17696301940509E-08  -3.17668503385669E-08
      2.16769703337069E-29
      1.27560300000000E-12
      9.99997776320832E-01   9.99997776317648E-01   0.00000000000000E+00  -2.20012952996750E-15   9.65582407620545E-09
      2.21110278351289E-08   3.17668497112049E-08  -7.19628238636938E-28   0.00000000000000E+00   3.17668569762378E-12
      0.00000000000000E+00  -2.84283891069811E-18   2.77985864393568E-12  -3.17696302730655E-08  -3.17668504172644E-08
     -1.79028549631062E-29
      1.75828390000000E-12
      9.99997776320124E-01   9.99997776316942E-01   0.00000000000000E+00  -1.12543993501691E-15   9.65582302288644E-09
      2.21110278289234E-08   3.17668497263700E-08  -6.77515703706408E-28   0.00000000000000E+00   3.17668428892465E-12
      0.00000000000000E+00  -7.18175966074796E-18   2.77986333736099E-12  -3.17696302457355E-08  -3.17668503895799E-08
     -8.22563606412987E-30
      2.25828390000000E-12
      9.99997776319935E-01   9.99997776316754E-01   0.00000000000000E+00  -1.55442340165115E-15   9.65582343870816E-09
      2.21110278319852E-08   3.17668497162700E-08  -1.78573115516629E-27   0.00000000000000E+00   3.17668404739453E-12
      0.00000000000000E+00   6.53825860773373E-18   2.77984980925274E-12  -3.17696301223394E-08  -3.17668502659918E-08
      6.48373666231413E-30
      2.75828390000000E-12
      9.99997776320448E-01   9.99997776317268E-01   0.00000000000000E+00  -2.26777346409826E-15   9.65582415824181E-09
      2.21110278392816E-08   3.17668497297500E-08  -6.45278468249194E-28   0.00000000000000E+00   3.17668437873586E-12
      0.00000000000000E+00  -1.19242240833825E-17   2.77986773498219E-12  -3.17696300841767E-08  -3.17668502283659E-08
      2.39995028694613E-29
      3.25828390000000E-12
      9.99997776319768E-01   9.99997776316595E-01   0.00000000000000E+00  -4.00928179909585E-16   9.65582229154035E-09
      2.21110278224645E-08   3.17668497130767E-08   5.21992211541688E-28   0.00000000000000E+00   3.17668386351468E-12
      0.00000000000000E+00   6.89723339721381E-18   2.77984961204999E-12  -3.17696300005422E-08  -3.17668501440329E-08
      3.56121655482328E-29
      3.75828390000000E-12
      9.99997776320725E-01   9.99997776317549E-01   0.00000000000000E+00   3.05408578220035E-16   9.65582161148669E-09
      2.21110278185550E-08   3.17668497354503E-08  -4.06842379036588E-28   0.00000000000000E+00   3.17668466192775E-12
      0.00000000000000E+00  -1.33565805421805E-18   2.77985720435564E-12  -3.17696299610934E-08  -3.17668501052247E-08
     -2.49672247593589E-29
      4.25828390000000E-12
      9.99997776320131E-01   9.99997776316952E-01   0.00000000000000E+00   1.99196371796974E-16   9.65582170417198E-09
      2.21110278181898E-08   3.17668497215582E-08   2.51063347810317E-28   0.00000000000000E+00   3.17668455305206E-12
      0.00000000000000E+00  -1.46179110406665E-18   2.77985769736251E-12  -3.17696298640216E-08  -3.17668500077861E-08
     -4.83860944948816E-30
      4.75828390000000E-12
      9.99997776320078E-01   9.99997776316895E-01   0.00000000000000E+00   1.39590839688236E-15   9.65582051880599E-09
      2.21110278082552E-08   3.17668497229696E-08  -1.37597956219819E-29   0.00000000000000E+00   3.17668428238637E-12
      0.00000000000000E+00  -3.56052926777126E-18   2.77985962994940E-12  -3.17696297657156E-08  -3.17668499096462E-08
      2.17737425226967E-29
      5.00000000000000E-12
      9.99997776320019E-01   9.99997776316844E-01   0.00000000000000E+00   6.26945717590138E-16   9.65582128641768E-09
      2.21110278148682E-08   3.17668497282316E-08  -2.03218572747597E-27   0.00000000000000E+00   3.17668439240359E-12
      0.00000000000000E+00  -1.32046765163994E-18   2.77985759876113E-12  -3.17696296693533E-08  -3.17668498130750E-08
      3.27089998785399E-29
      5.50000000000000E-12
      9.99997776320143E-01   9.99997776316970E-01   0.00000000000000E+00  -2.07203843463436E-15   9.65582395904733E-09
      2.21110278368207E-08   3.17668497238296E-08  -4.04194752428446E-28   0.00000000000000E+00   3.17668436343516E-12
      0.00000000000000E+00  -1.21553160752767E-17   2.77986797162548E-12  -3.17696295893496E-08  -3.17668497335333E-08
     -3.21283667446014E-29
      6.00000000000000E-12
      9.99997776320024E-01   9.99997776316845E-01   0.00000000000000E+00  -1.46493823490977E-15   9.65582335318132E-09
      2.21110278320437E-08   3.17668497202868E-08  -8.78765567234245E-28   0.00000000000000E+00   3.17668405831571E-12
      0.00000000000000E+00   8.82986649609467E-18   2.77984754142118E-12  -3.17696295680168E-08  -3.17668497116455E-08
      1.93544377979526E-30
      6.50000000000000E-12
      9.99997776320030E-01   9.99997776316848E-01   0.00000000000000E+00   8.88679507877133E-16   9.65582101962209E-09
      2.21110278127037E-08   3.17668497210053E-08  -1.67521731533998E-29   0.00000000000000E+00   3.17668406726569E-12
      0.00000000000000E+00   6.31291702136608E-18   2.77985004589603E-12  -3.17696295201184E-08  -3.17668496637595E-08
      3.38702661464171E-30
      7.00000000000000E-12
      9.99997776320178E-01   9.99997776316999E-01   0.00000000000000E+00   2.27988164067338E-15   9.65581964373855E-09
      2.21110278011412E-08   3.17668497247614E-08   3.26975081810974E-28   0.00000000000000E+00   3.17668445135396E-12
      0.00000000000000E+00  -5.71682765148385E-18   2.77986158225657E-12  -3.17696294341480E-08  -3.17668495782826E-08
     -1.92576656089629E-29
      7.50000000000000E-12
      9.99997776320546E-01   9.99997776317365E-01   0.00000000000000E+00  -1.54391401494737E-15   9.65582344361850E-09
      2.21110278331573E-08   3.17668497328618E-08  -5.89180839944190E-28   0.00000000000000E+00   3.17668496679092E-12
      0.00000000000000E+00  -4.94148202637748E-18   2.77986073428477E-12  -3.17696293678517E-08  -3.17668495120589E-08
     -1.99350709318912E-29
      8.00000000000000E-12
      9.99997776320146E-01   9.99997776316972E-01   0.00000000000000E+00   1.35295209857388E-15   9.65582055960724E-09
      2.21110278091853E-08   3.17668497217446E-08  -2.29418130851122E-28   0.00000000000000E+00   3.17668433158213E-12
      0.00000000000000E+00  -3.24163018202113E-18   2.77985935386556E-12  -3.17696293622030E-08  -3.17668495060908E-08
     -1.65480443172495E-29
      8.50000000000000E-12
      9.99997776320596E-01   9.99997776317413E-01   0.00000000000000E+00   1.51936035363703E-16   9.65582176167629E-09
      2.21110278195669E-08   3.17668497331792E-08   7.54248489248026E-29   0.00000000000000E+00   3.17668484816708E-12
      0.00000000000000E+00  -2.37616606789979E-18   2.77985822980992E-12  -3.17696293115224E-08  -3.17668494556687E-08
      2.07092484438093E-29
      9.00000000000000E-12
      9.99997776320445E-01   9.99997776317268E-01   0.00000000000000E+00   1.67425565742198E-15   9.65582024660707E-09
      2.21110278069096E-08   3.17668497277723E-08  -7.15539613652120E-29   0.00000000000000E+00   3.17668478167381E-12
      0.00000000000000E+00   1.84211713630582E-19   2.77985586337698E-12  -3.17696292895975E-08  -3.17668494335499E-08
     -1.39351952145259E-29
      9.50000000000000E-12
      9.99997776320253E-01   9.99997776317079E-01   0.00000000000000E+00  -1.98517397956870E-15   9.65582387509811E-09
      2.21110278360660E-08   3.17668497259901E-08   9.81049234800065E-28   0.00000000000000E+00   3.17668472593564E-12
      0.00000000000000E+00  -1.60407367747525E-18   2.77985777624360E-12  -3.17696292069067E-08  -3.17668493507346E-08
     -2.74833016730927E-29
      1.00000000000000E-11
      9.99997776320364E-01   9.99997776317187E-01   0.00000000000000E+00  -7.54267096733486E-16   9.65582262749496E-09
      2.21110278232458E-08   3.17668496964736E-08  -1.06032985062993E-27   0.00000000000000E+00   3.17668492282949E-12
      0.00000000000000E+00   8.64461789491609E-19   2.77985487736326E-12  -3.17696292842962E-08  -3.17668494285544E-08
     -1.66448165062393E-29
      1.05000000000000E-11
      9.99997776320279E-01   9.99997776317096E-01   0.00000000000000E+00   1.82291076024522E-15   9.65582010590289E-09
      2.21110278050680E-08   3.17668497338816E-08  -1.24246720683229E-27   0.00000000000000E+00   3.17668440362649E-12
      0.00000000000000E+00   1.29727161311838E-18   2.77985495624436E-12  -3.17696292955581E-08  -3.17668494393046E-08
      1.65480443172495E-29
      1.10000000000000E-11
      9.99997776320831E-01   9.99997776317648E-01   0.00000000000000E+00  -8.93479191210957E-16   9.65582279902188E-09
      2.21110278282465E-08   3.17668497337892E-08  -5.15700507191901E-28   0.00000000000000E+00   3.17668518692105E-12
      0.00000000000000E+00   1.70627190642435E-18   2.77985412799283E-12  -3.17696292476963E-08  -3.17668493918620E-08
     -1.66448165062393E-29
      1.15000000000000E-11
      9.99997776320461E-01   9.99997776317281E-01   0.00000000000000E+00  -4.41860020086081E-16   9.65582234614578E-09
      2.21110278244660E-08   3.17668497287518E-08  -4.75813732608136E-28   0.00000000000000E+00   3.17668467551465E-12
      0.00000000000000E+00  -5.64770181495096E-18   2.77986154281602E-12  -3.17696292604159E-08  -3.17668494045207E-08
     -2.61284910272360E-30
      1.20000000000000E-11
      9.99997776320131E-01   9.99997776316952E-01   0.00000000000000E+00   2.83987345551449E-16   9.65582161870429E-09
      2.21110278174028E-08   3.17668497200945E-08   2.03025028369617E-28   0.00000000000000E+00   3.17668438861200E-12
      0.00000000000000E+00  -1.42946181439318E-18   2.77985761848141E-12  -3.17696291943185E-08  -3.17668493381295E-08
      6.77405322928342E-30
      1.25000000000000E-11
      9.99997776320154E-01   9.99997776316982E-01   0.00000000000000E+00   8.99557179756502E-16   9.65582101218754E-09
      2.21110278123733E-08   3.17668497241180E-08  -8.84019994683298E-28   0.00000000000000E+00   3.17668431249452E-12
      0.00000000000000E+00  -1.79354327504712E-18   2.77985781568415E-12  -3.17696291312302E-08  -3.17668492752081E-08
      4.93538163847792E-30
      1.30000000000000E-11
      9.99997776320777E-01   9.99997776317598E-01   0.00000000000000E+00   2.04311423182412E-15   9.65581988653458E-09
      2.21110278042896E-08   3.17668497339384E-08   1.59480567455130E-28   0.00000000000000E+00   3.17668499587384E-12
      0.00000000000000E+00  -8.06752516898605E-18   2.77986379092730E-12  -3.17696291163929E-08  -3.17668492606695E-08
     -1.66448165062393E-29
      1.35000000000000E-11
      9.99997776320400E-01   9.99997776317221E-01   0.00000000000000E+00   3.73426439922786E-16   9.65582153828502E-09
      2.21110278169754E-08   3.17668497286869E-08  -7.99822142000392E-29   0.00000000000000E+00   3.17668488070568E-12
      0.00000000000000E+00  -6.55320274951919E-18   2.77986246966892E-12  -3.17696290543988E-08  -3.17668491984823E-08
     -1.44190561594747E-29
      1.40000000000000E-11
      9.99997776320186E-01   9.99997776317016E-01   0.00000000000000E+00   2.97331401356123E-16   9.65582160728625E-09
      2.21110278172746E-08   3.17668497218923E-08  -4.98629288227925E-28   0.00000000000000E+00   3.17668447949054E-12
      0.00000000000000E+00  -2.87410107027011E-18   2.77985890029924E-12  -3.17696290028481E-08  -3.17668491468219E-08
     -5.61278696140626E-30
      1.45000000000000E-11
      9.99997776320322E-01   9.99997776317142E-01   0.00000000000000E+00  -2.50173168103776E-16   9.65582215495773E-09
      2.21110278222415E-08   3.17668497270261E-08  -1.60268958382306E-27   0.00000000000000E+00   3.17668447965274E-12
      0.00000000000000E+00  -6.95848320874673E-18   2.77986294295550E-12  -3.17696289717534E-08  -3.17668491157689E-08
     -5.80633133938579E-31
      1.50000000000000E-11
      9.99997776320915E-01   9.99997776317738E-01   0.00000000000000E+00  -2.05629200542901E-16   9.65582210263984E-09
      2.21110278209310E-08   3.17668497179416E-08  -9.13372209256256E-28   0.00000000000000E+00   3.17668533274524E-12
      0.00000000000000E+00   4.12022820508371E-18   2.77985164323826E-12  -3.17696290402552E-08  -3.17668491844917E-08
      1.39351952145259E-29
      1.55000000000000E-11
      9.99997776320222E-01   9.99997776317045E-01   0.00000000000000E+00  -9.97457928894546E-16   9.65582289821487E-09
      2.21110278279833E-08   3.17668497287403E-08  -1.51482799654762E-27   0.00000000000000E+00   3.17668452464798E-12
      0.00000000000000E+00  -4.68292979592056E-18   2.77986083288614E-12  -3.17696290315848E-08  -3.17668491754348E-08
     -4.25797631554958E-30
      1.60000000000000E-11
      9.99997776320467E-01   9.99997776317284E-01   0.00000000000000E+00  -1.32980915733550E-15   9.65582322330359E-09
      2.21110278312750E-08   3.17668497247695E-08  -1.15929151039559E-27   0.00000000000000E+00   3.17668451956097E-12
      0.00000000000000E+00   8.96082539340622E-19   2.77985501540518E-12  -3.17696290192949E-08  -3.17668491633835E-08
     -1.74189940181574E-30
      1.65000000000000E-11
      9.99997776320227E-01   9.99997776317048E-01   0.00000000000000E+00  -1.21795489581426E-15   9.65582311158823E-09
      2.21110278300265E-08   3.17668497236598E-08  -7.32825545910417E-28   0.00000000000000E+00   3.17668424818424E-12
      0.00000000000000E+00  -3.18782003864506E-18   2.77985923554391E-12  -3.17696290071260E-08  -3.17668491510782E-08
     -2.90316566969289E-31
      1.70000000000000E-11
      9.99997776320300E-01   9.99997776317126E-01   0.00000000000000E+00   2.36603265230055E-16   9.65582166751199E-09
      2.21110278180906E-08   3.17668497222058E-08  -1.17955318746532E-27   0.00000000000000E+00   3.17668432936688E-12
      0.00000000000000E+00  -9.44025627340964E-18   2.77986526994788E-12  -3.17696289769788E-08  -3.17668491211491E-08
     -1.76125383961369E-29
      1.75000000000000E-11
      9.99997776320097E-01   9.99997776316923E-01   0.00000000000000E+00   1.92195507537849E-15   9.65581999604126E-09
      2.21110278038123E-08   3.17668497218087E-08  -7.92945268320307E-28   0.00000000000000E+00   3.17668426775866E-12
      0.00000000000000E+00  -9.95784029481443E-18   2.77986588127639E-12  -3.17696289117339E-08  -3.17668490558105E-08
      6.96759760726295E-30
      1.80000000000000E-11
      9.99997776320328E-01   9.99997776317157E-01   0.00000000000000E+00   2.11332985877177E-15   9.65581980978325E-09
      2.21110278024254E-08   3.17668497255385E-08   1.31280546757331E-27   0.00000000000000E+00   3.17668467097173E-12
      0.00000000000000E+00  -8.41533613586607E-19   2.77985692827180E-12  -3.17696288232479E-08  -3.17668489671612E-08
     -7.74177511918105E-30
      1.85000000000000E-11
      9.99997776320358E-01   9.99997776317177E-01   0.00000000000000E+00  -5.25892018077614E-16   9.65582243011473E-09
      2.21110278242496E-08   3.17668497284723E-08  -1.25058699831471E-27   0.00000000000000E+00   3.17668474735070E-12
      0.00000000000000E+00   2.54019735762755E-18   2.77985353638460E-12  -3.17696287638053E-08  -3.17668489077287E-08
      2.85477957519801E-29
      1.90000000000000E-11
      9.99997776320079E-01   9.99997776316896E-01   0.00000000000000E+00   2.40605348307738E-15   9.65581951324948E-09
      2.21110278000429E-08   3.17668497193459E-08  -1.83550986194335E-27   0.00000000000000E+00   3.17668427612076E-12
      0.00000000000000E+00  -4.62466103608812E-18   2.77986067512394E-12  -3.17696287381981E-08  -3.17668488821477E-08
     -1.30642455136180E-29
      1.95000000000000E-11
      9.99997776320518E-01   9.99997776317345E-01   0.00000000000000E+00   1.88303444709555E-17   9.65582189311191E-09
      2.21110278200543E-08   3.17668497319966E-08  -5.69554230364704E-28   0.00000000000000E+00   3.17668484531635E-12
      0.00000000000000E+00  -7.72109671883670E-19   2.77985669162851E-12  -3.17696286834600E-08  -3.17668488275405E-08
     -2.31285531685534E-29
      2.00000000000000E-11
      9.99997776320273E-01   9.99997776317093E-01   0.00000000000000E+00  -5.85824407816069E-16   9.65582248150576E-09
      2.21110278244445E-08   3.17668497201258E-08  -7.84684854750759E-28   0.00000000000000E+00   3.17668458950954E-12
      0.00000000000000E+00  -1.10113569268587E-18   2.77985714519482E-12  -3.17696286768607E-08  -3.17668488208166E-08
     -2.70962129171337E-30
      2.05000000000000E-11
      9.99997776320273E-01   9.99997776317093E-01   0.00000000000000E+00  -1.57479162749074E-15   9.65582346757863E-09
      2.21110278329635E-08   3.17668497257505E-08   1.93554962437697E-28   0.00000000000000E+00   3.17668437871023E-12
      0.00000000000000E+00  -2.96596066629275E-18   2.77985899890062E-12  -3.17696286775286E-08  -3.17668488214957E-08
     -3.38702661464171E-30
      2.10000000000000E-11
      9.99997776320025E-01   9.99997776316845E-01   0.00000000000000E+00  -2.34586048893519E-15   9.65582422462024E-09
      2.21110278386448E-08   3.17668497174046E-08  -1.23660492907114E-27   0.00000000000000E+00   3.17668408292875E-12
      0.00000000000000E+00   1.70132940911225E-18   2.77985446323750E-12  -3.17696286605783E-08  -3.17668488044138E-08
     -2.90316566969289E-29
      2.15000000000000E-11
      9.99997776319789E-01   9.99997776316610E-01   0.00000000000000E+00   4.06016286475978E-16   9.65582149292836E-09
      2.21110278157854E-08   3.17668497147301E-08  -2.16995303502652E-27   0.00000000000000E+00   3.17668367256849E-12
      0.00000000000000E+00   7.71163511996126E-19   2.77985544925122E-12  -3.17696286369625E-08  -3.17668487807421E-08
     -4.35474850453934E-30
      2.20000000000000E-11
      9.99997776320411E-01   9.99997776317234E-01   0.00000000000000E+00  -1.37347977611653E-15   9.65582326931100E-09
      2.21110278312421E-08   3.17668497270733E-08  -8.65689225197003E-28   0.00000000000000E+00   3.17668450689018E-12
      0.00000000000000E+00  -7.93854499874525E-18   2.77986369232593E-12  -3.17696285975995E-08  -3.17668487418458E-08
     -1.49029171044235E-29
      2.25000000000000E-11
      9.99997776320041E-01   9.99997776316860E-01   0.00000000000000E+00  -1.10436229231881E-15   9.65582299488365E-09
      2.21110278286303E-08   3.17668497191517E-08  -1.22910206029353E-27   0.00000000000000E+00   3.17668408474617E-12
      0.00000000000000E+00   5.92154381637600E-18   2.77985038114069E-12  -3.17696285941921E-08  -3.17668487378895E-08
      1.76125383961369E-29
      2.30000000000000E-11
      9.99997776320116E-01   9.99997776316939E-01   0.00000000000000E+00  -1.43762745936676E-15   9.65582332614481E-09
      2.21110278313383E-08   3.17668497198556E-08  -8.77395635933858E-28   0.00000000000000E+00   3.17668413631117E-12
      0.00000000000000E+00   1.10023144033673E-17   2.77984533275044E-12  -3.17696285690863E-08  -3.17668487127512E-08
     -1.10320295448330E-29
      2.35000000000000E-11
      9.99997776320213E-01   9.99997776317033E-01   0.00000000000000E+00  -4.26213983197202E-16   9.65582232543948E-09
      2.21110278233803E-08   3.17668497226058E-08  -1.31315929088931E-27   0.00000000000000E+00   3.17668415192047E-12
      0.00000000000000E+00   1.07406860731846E-17   2.77984545107209E-12  -3.17696285699100E-08  -3.17668487137183E-08
      4.06443193757005E-30
      2.40000000000000E-11
      9.99997776320684E-01   9.99997776317504E-01   0.00000000000000E+00   1.19028306306594E-15   9.65582072904385E-09
      2.21110278110423E-08   3.17668497303692E-08  -2.09209376072244E-27   0.00000000000000E+00   3.17668472448113E-12
      0.00000000000000E+00   1.41290617654355E-18   2.77985456183887E-12  -3.17696285841038E-08  -3.17668487281291E-08
      1.40319674035157E-29
      2.45000000000000E-11
      9.99997776320529E-01   9.99997776317358E-01   0.00000000000000E+00   6.84588115256661E-16   9.65582122970218E-09
      2.21110278145762E-08   3.17668497288665E-08   7.91557192234485E-28   0.00000000000000E+00   3.17668482405153E-12
      0.00000000000000E+00   9.23871125626844E-19   2.77985519288765E-12  -3.17696285551665E-08  -3.17668486990497E-08
     -1.46126005374542E-29
      2.50000000000000E-11
      9.99997776320655E-01   9.99997776317472E-01   0.00000000000000E+00   1.53995814205938E-15   9.65582037924562E-09
      2.21110278075114E-08   3.17668497267152E-08  -1.33554390785500E-27   0.00000000000000E+00   3.17668494270372E-12
      0.00000000000000E+00   2.63261860107203E-18   2.77985333918186E-12  -3.17696285519689E-08  -3.17668486959971E-08
      1.37416508365464E-29
      2.55000000000000E-11
      9.99997776320249E-01   9.99997776317076E-01   0.00000000000000E+00  -8.53571178119714E-16   9.65582275183128E-09
      2.21110278264482E-08   3.17668497247083E-08  -9.80867786945709E-28   0.00000000000000E+00   3.17668463434450E-12
      0.00000000000000E+00  -4.55269239952781E-18   2.77986067512394E-12  -3.17696284950101E-08  -3.17668486388876E-08
     -2.80639348070313E-30
      2.60000000000000E-11
      9.99997776320180E-01   9.99997776317001E-01   0.00000000000000E+00  -4.41211645661591E-16   9.65582233827738E-09
      2.21110278232907E-08   3.17668497203564E-08  -8.35038146399948E-28   0.00000000000000E+00   3.17668426048078E-12
      0.00000000000000E+00  -2.64356640543292E-18   2.77985866365595E-12  -3.17696284789777E-08  -3.17668486229576E-08
     -3.48379880363147E-30
      2.65000000000000E-11
      9.99997776320330E-01   9.99997776317157E-01   0.00000000000000E+00  -1.20240529810808E-15   9.65582309766571E-09
      2.21110278297642E-08   3.17668497250246E-08  -5.68503344874893E-28   0.00000000000000E+00   3.17668433983343E-12
      0.00000000000000E+00   5.26181115287089E-18   2.77985081498673E-12  -3.17696284691372E-08  -3.17668486130604E-08
      6.19342009534484E-30
      2.70000000000000E-11
      9.99997776320512E-01   9.99997776317331E-01   0.00000000000000E+00   2.43099880705715E-15   9.65581949465326E-09
      2.21110278005824E-08   3.17668497262345E-08  -2.63991507433168E-28   0.00000000000000E+00   3.17668449792530E-12
      0.00000000000000E+00   1.18719303880453E-19   2.77985586337698E-12  -3.17696284881128E-08  -3.17668486321307E-08
      1.17094348677613E-29
      2.75000000000000E-11
      9.99997776320763E-01   9.99997776317592E-01   0.00000000000000E+00   6.67636122821449E-17   9.65582184742005E-09
      2.21110278199655E-08   3.17668497341492E-08   3.11301011325538E-28   0.00000000000000E+00   3.17668511787257E-12
      0.00000000000000E+00  -8.16329469513759E-18   2.77986400785032E-12  -3.17696284480117E-08  -3.17668485921671E-08
     -5.99987571736531E-30
      2.80000000000000E-11
      9.99997776320091E-01   9.99997776316908E-01   0.00000000000000E+00   1.11871837197215E-15   9.65582078923013E-09
      2.21110278101546E-08   3.17668497181031E-08  -3.80384257740606E-28   0.00000000000000E+00   3.17668441405008E-12
      0.00000000000000E+00  -3.36836808293940E-18   2.77985949190748E-12  -3.17696284065241E-08  -3.17668485504005E-08
     -1.77093105851267E-29
      2.85000000000000E-11
      9.99997776320211E-01   9.99997776317033E-01   0.00000000000000E+00   2.57973452788726E-16   9.65582164850164E-09
      2.21110278172431E-08   3.17668497237182E-08  -1.72575961517079E-27   0.00000000000000E+00   3.17668439899918E-12
      0.00000000000000E+00  -3.52265695008080E-18   2.77985947218720E-12  -3.17696283491189E-08  -3.17668484931693E-08
      1.32577898915975E-29
      2.90000000000000E-11
      9.99997776320568E-01   9.99997776317395E-01   0.00000000000000E+00  -9.40954828702840E-16   9.65582284140075E-09
      2.21110278279618E-08   3.17668497284077E-08  -1.31783308520442E-27   0.00000000000000E+00   3.17668465958155E-12
      0.00000000000000E+00  -8.38629464379269E-18   2.77986410645169E-12  -3.17696283549172E-08  -3.17668484991970E-08
     -4.55797010141784E-29
      2.95000000000000E-11
      9.99997776320489E-01   9.99997776317314E-01   0.00000000000000E+00  -1.67687847743572E-16   9.65582207270446E-09
      2.21110278218297E-08   3.17668497268463E-08  -8.64673117212610E-28   0.00000000000000E+00   3.17668453501612E-12
      0.00000000000000E+00  -9.59103268398222E-18   2.77986540798981E-12  -3.17696283825452E-08  -3.17668485267282E-08
     -8.51595263109916E-30
      3.00000000000000E-11
      9.99997776320682E-01   9.99997776317503E-01   0.00000000000000E+00  -2.00996657001266E-15   9.65582387927881E-09
      2.21110278337559E-08   3.17668497030681E-08  -1.25018176477331E-27   0.00000000000000E+00   3.17668524801321E-12
      0.00000000000000E+00   9.79323007620571E-19   2.77985473932134E-12  -3.17696284466051E-08  -3.17668485908864E-08
      0.00000000000000E+00
      3.05000000000000E-11
      9.99997776320249E-01   9.99997776317076E-01   0.00000000000000E+00  -1.12910264091181E-15   9.65582302917721E-09
      2.21110278288802E-08   3.17668497289547E-08  -6.89090564748856E-28   0.00000000000000E+00   3.17668421564299E-12
      0.00000000000000E+00   1.75346757131718E-18   2.77985438435640E-12  -3.17696284989472E-08  -3.17668486428093E-08
     -3.19348223666218E-30
      3.10000000000000E-11
      9.99997776320569E-01   9.99997776317395E-01   0.00000000000000E+00  -2.85065566029325E-16   9.65582218680597E-09
      2.21110278226008E-08   3.17668497243412E-08  -1.06752274598968E-27   0.00000000000000E+00   3.17668453372779E-12
      0.00000000000000E+00  -7.63453389003839E-18   2.77986337680154E-12  -3.17696284965668E-08  -3.17668486408245E-08
     -8.61272482008892E-30
      3.15000000000000E-11
      9.99997776320460E-01   9.99997776317281E-01   0.00000000000000E+00   1.72124119273284E-15   9.65582019961363E-09
      2.21110278060188E-08   3.17668497268736E-08  -7.61828473363740E-28   0.00000000000000E+00   3.17668454901356E-12
      0.00000000000000E+00  -1.10557789175607E-17   2.77986688701039E-12  -3.17696284880303E-08  -3.17668486321991E-08
     -3.47412158473250E-29
      3.20000000000000E-11
      9.99997776320327E-01   9.99997776317143E-01   0.00000000000000E+00  -2.08694075960907E-16   9.65582211025186E-09
      2.21110278210921E-08   3.17668497226499E-08  -3.89704629192682E-28   0.00000000000000E+00   3.17668470910480E-12
      0.00000000000000E+00  -5.39609241070081E-19   2.77985663246769E-12  -3.17696284032624E-08  -3.17668485471695E-08
     -4.35474850453934E-30
      3.25000000000000E-11
      9.99997776320604E-01   9.99997776317424E-01   0.00000000000000E+00  -8.54411087276142E-16   9.65582275682048E-09
      2.21110278274405E-08   3.17668497298499E-08  -1.04265682961567E-27   0.00000000000000E+00   3.17668461586367E-12
      0.00000000000000E+00  -2.22415403299918E-18   2.77985811148827E-12  -3.17696284174653E-08  -3.17668485615780E-08
      2.63220354052156E-29
      3.30000000000000E-11
      9.99997776319917E-01   9.99997776316746E-01   0.00000000000000E+00  -1.48778905900369E-15   9.65582337025906E-09
      2.21110278311023E-08   3.17668497135723E-08   4.79153885193735E-28   0.00000000000000E+00   3.17668406112411E-12
      0.00000000000000E+00   8.18772203762240E-18   2.77984825135106E-12  -3.17696283685482E-08  -3.17668485121091E-08
      9.87076327695584E-30
      3.35000000000000E-11
      9.99997776320315E-01   9.99997776317139E-01   0.00000000000000E+00   1.23611343220214E-15   9.65582067810639E-09
      2.21110278098386E-08   3.17668497240584E-08  -1.20456123799191E-27   0.00000000000000E+00   3.17668412159261E-12
      0.00000000000000E+00   1.15054727267606E-17   2.77984472142193E-12  -3.17696283724481E-08  -3.17668485162212E-08
     -3.46444436583352E-29
      3.40000000000000E-11