DF-ISE text

Info {
  version   = 1.0
  type      = xyplot
  datasets  = [
    "time"
    "ntype OuterVoltage" "ntype InnerVoltage" "ntype QuasiFermiPotential" "ntype DisplacementCurrent" "ntype eCurrent"
    "ntype hCurrent" "ntype TotalCurrent" "ntype Charge" "ptype OuterVoltage" "ptype InnerVoltage"
    "ptype QuasiFermiPotential" "ptype DisplacementCurrent" "ptype eCurrent" "ptype hCurrent" "ptype TotalCurrent"
    "ptype Charge" ]
  functions = [
    Time
    OuterVoltage InnerVoltage QuasiFermiPotential DisplacementCurrent eCurrent
    hCurrent TotalCurrent Charge OuterVoltage InnerVoltage
    QuasiFermiPotential DisplacementCurrent eCurrent hCurrent TotalCurrent
    Charge ]
}

Data {
      1.00000000000000E-15
      1.49999981870384E+01   1.49999981870358E+01   0.00000000000000E+00  -1.99453664295468E-14   2.58197154229167E-08
      4.05371726933592E-23   2.58196954775503E-08   1.46730831555728E-28   0.00000000000000E+00   3.64017431448312E-12
      0.00000000000000E+00  -2.46695626804646E-09  -2.33527392095039E-08   6.74793303251887E-24  -2.58196954775504E-08
      1.49996892934133E-28
      2.30000000000000E-15
      1.49999981879664E+01   1.49999981879638E+01   0.00000000000000E+00  -6.11144213973066E-14   2.58197252980536E-08
     -3.93726993728589E-23   2.58196641836321E-08  -3.07977491459921E-29   0.00000000000000E+00   2.57679594709437E-12
      0.00000000000000E+00  -1.63800092238824E-09  -2.41816632612439E-08   2.08652355397476E-23  -2.58196641836322E-08
     -2.90510111347269E-28
      3.99000000000000E-15
      1.49999981886357E+01   1.49999981886331E+01   0.00000000000000E+00  -1.23628644976421E-13   2.58197357148611E-08
      1.55347491524717E-23   2.58196120862162E-08   1.54883888478116E-28   0.00000000000000E+00   2.50276908890510E-12
      0.00000000000000E+00  -1.11372651709700E-09  -2.47058855691192E-08  -1.34872259617447E-23  -2.58196120862162E-08
      2.95542265174737E-28
      6.18700000000000E-15
      1.49999981897670E+01   1.49999981897644E+01   0.00000000000000E+00  -2.11821952437351E-13   2.58197460581987E-08
     -5.97931735439515E-23   2.58195342362462E-08  -1.33182725097162E-28   0.00000000000000E+00   2.62198355780047E-12
      0.00000000000000E+00  -4.97170491400478E-10  -2.53223637448457E-08   2.17244416914446E-24  -2.58195342362461E-08
      3.24767466249645E-28
      9.04310000000000E-15
      1.49999981905162E+01   1.49999981905136E+01   0.00000000000000E+00  -3.25304187388565E-13   2.58197546590858E-08
     -5.50171452874067E-24   2.58194293548984E-08  -1.28936845305236E-28   0.00000000000000E+00   2.56889729969452E-12
      0.00000000000000E+00  -2.09219087758661E-10  -2.56102102671398E-08   7.42191877246822E-24  -2.58194293548985E-08
     -2.12898815777479E-28
      1.27560300000000E-14
      1.49999981909013E+01   1.49999981908987E+01   0.00000000000000E+00  -4.61776325201721E-13   2.58197618078866E-08
     -3.20905220134981E-23   2.58193000315614E-08  -8.54619394015846E-29   0.00000000000000E+00   2.54777301013679E-12
      0.00000000000000E+00  -1.58233656444624E-10  -2.56610663751168E-08   7.22329940225182E-24  -2.58193000315614E-08
     -6.65792660249570E-29
      1.75828390000000E-14
      1.49999981912077E+01   1.49999981912051E+01   0.00000000000000E+00  -6.11765476911800E-13   2.58197676853085E-08
     -2.25215890754737E-23   2.58191559198316E-08  -2.91163323622950E-29   0.00000000000000E+00   2.52664872057906E-12
      0.00000000000000E+00  -1.86067013530156E-10  -2.56330889063014E-08   1.81535358250535E-23  -2.58191559198316E-08
     -8.72885144687663E-29
      2.38576907000000E-14
      1.49999981920104E+01   1.49999981920078E+01   0.00000000000000E+00  -7.46839860594792E-13   2.58197702307761E-08
     -4.64945506953391E-24   2.58190233909155E-08  -1.97959609102184E-28   0.00000000000000E+00   2.59075634714991E-12
      0.00000000000000E+00   2.85046277418749E-11  -2.58475280186575E-08   5.73493345422803E-24  -2.58190233909156E-08
     -3.29412531321154E-28
      3.20149979100000E-14
      1.49999981925945E+01   1.49999981925919E+01   0.00000000000000E+00  -8.08978847285121E-13   2.58197655774215E-08
     -4.60979547093716E-23   2.58189565985741E-08   2.81969965668922E-29   0.00000000000000E+00   2.59755285770327E-12
      0.00000000000000E+00   8.02260275376398E-11  -2.58991826261117E-08   3.98642087682008E-24  -2.58189565985741E-08
      1.17481437433572E-28
      4.26194972830000E-14
      1.49999981928436E+01   1.49999981928410E+01   0.00000000000000E+00  -7.36169935555726E-13   2.58197547845259E-08
      2.11630368682233E-23   2.58190186145903E-08   5.19424724402554E-29   0.00000000000000E+00   2.60177771561482E-12
      0.00000000000000E+00   6.42375273676669E-11  -2.58832561419580E-08  -1.50656558191068E-23  -2.58190186145903E-08
     -3.84766223423298E-28
      5.64053464679000E-14
      1.49999981929021E+01   1.49999981928995E+01   0.00000000000000E+00  -5.17442419820239E-13   2.58197403516548E-08
      2.44708161554416E-23   2.58192229092350E-08  -5.44343563067418E-30   0.00000000000000E+00   2.59038896820108E-12
      0.00000000000000E+00   3.00145664528001E-11  -2.58492374756878E-08  -2.36944017231391E-24  -2.58192229092350E-08
      2.07286028816073E-28
      7.43269504082700E-14
      1.49999981927134E+01   1.49999981927108E+01   0.00000000000000E+00  -2.36103707662846E-13   2.58197272515041E-08
     -1.77793136687985E-23   2.58194911477964E-08  -2.86687609882173E-30   0.00000000000000E+00   2.57955128921060E-12
      0.00000000000000E+00  -2.82246091799477E-11  -2.57912665386165E-08  -2.76569005972318E-24  -2.58194911477964E-08
     -9.59980114778450E-29
      9.76250355307510E-14
      1.49999981927869E+01   1.49999981927844E+01   0.00000000000000E+00  -2.46880915429923E-14   2.58197162961647E-08
     -2.82764499782362E-23   2.58196916080731E-08  -1.04018006640372E-28   0.00000000000000E+00   2.58083711553150E-12
      0.00000000000000E+00   3.12340624818568E-13  -2.58200039486979E-08   3.36243813809354E-24  -2.58196916080731E-08
     -2.09027928217888E-29
      1.27912546189976E-13
      1.49999981928586E+01   1.49999981928560E+01   0.00000000000000E+00   9.61819928592816E-14   2.58197064450084E-08
      3.83601138767716E-23   2.58198026270013E-08  -1.89915420892410E-29   0.00000000000000E+00   2.58598042081512E-12
      0.00000000000000E+00   2.86099259911005E-11  -2.58484125529924E-08  -1.81975325742137E-24  -2.58198026270013E-08
     -2.61091365894381E-28
      1.67286310046969E-13
      1.49999981924905E+01   1.49999981924879E+01   0.00000000000000E+00   1.43060472447062E-13   2.58197051821482E-08
     -1.45559165062541E-23   2.58198482426206E-08   4.59788862937612E-29   0.00000000000000E+00   2.57330584708048E-12
      0.00000000000000E+00  -7.59816406280470E-11  -2.57438666019926E-08   1.49386026263574E-24  -2.58198482426206E-08
      1.06449407888739E-29
      2.17286310046969E-13
      1.49999981928165E+01   1.49999981928139E+01   0.00000000000000E+00   8.84906763328093E-14   2.58197023357388E-08
     -2.42851754811590E-23   2.58197908264151E-08  -2.00802292153759E-29   0.00000000000000E+00   2.58046973658267E-12
      0.00000000000000E+00   6.94288922765662E-12  -2.58267337156428E-08   8.58060730278094E-24  -2.58197908264152E-08
      3.12574170436935E-28
      2.67286310046969E-13
      1.49999981927495E+01   1.49999981927470E+01   0.00000000000000E+00   1.67376427157417E-13   2.58196997042262E-08
      3.22002187755742E-23   2.58198670806534E-08   1.38626160727836E-29   0.00000000000000E+00   2.58230663132682E-12
      0.00000000000000E+00   1.36090505172996E-13  -2.58200031711585E-08  -1.53906732669445E-24  -2.58198670806534E-08
     -4.29668519114548E-29
      3.17286310046969E-13
      1.49999981927365E+01   1.49999981927339E+01   0.00000000000000E+00   1.74248186958047E-13   2.58197004967114E-08
      7.67033513286084E-24   2.58198747448984E-08   1.38263265019124E-28   0.00000000000000E+00   2.58230663132682E-12
      0.00000000000000E+00   1.39048128982147E-12  -2.58212652261882E-08  -4.75465255035300E-25  -2.58198747448984E-08
      9.36754789420907E-29
      3.67286310046969E-13
      1.49999981927135E+01   1.49999981927110E+01   0.00000000000000E+00   1.49743305685410E-13   2.58197015987955E-08
      2.47070861045287E-23   2.58198513421012E-08  -1.35239134113194E-29   0.00000000000000E+00   2.58212294185241E-12
      0.00000000000000E+00   9.38227490113192E-13  -2.58207895695914E-08  -6.81931173993349E-24  -2.58198513421013E-08
      2.55478578932975E-29
      4.17286310046969E-13
      1.49999981927162E+01   1.49999981927136E+01   0.00000000000000E+00   1.33747911169301E-13   2.58197027116888E-08
      1.66232785607655E-23   2.58198364596000E-08   8.85344564020095E-29   0.00000000000000E+00   2.58267401027565E-12
      0.00000000000000E+00   5.27442989035587E-12  -2.58251108894904E-08  -7.21643511418020E-24  -2.58198364596000E-08
     -2.08060206327991E-28
      4.67286310046969E-13
      1.49999981926970E+01   1.49999981926944E+01   0.00000000000000E+00   1.28073941234042E-13   2.58197036099063E-08
     -6.49404831490617E-23   2.58198316838475E-08  -6.42446369655790E-29   0.00000000000000E+00   2.58249032080124E-12
      0.00000000000000E+00   3.22494133778586E-12  -2.58230566251852E-08  -1.74708080063431E-24  -2.58198316838475E-08
     -2.78703904290518E-28
      5.17286310046969E-13
      1.49999981926832E+01   1.49999981926806E+01   0.00000000000000E+00   1.15691679083965E-13   2.58197047391544E-08
     -8.36901912516104E-23   2.58198204308334E-08   1.35722995058143E-29   0.00000000000000E+00   2.58285769975007E-12
      0.00000000000000E+00   5.60958342064068E-12  -2.58254300142541E-08   5.61715487879508E-24  -2.58198204308334E-08
     -1.90447667931854E-28
      5.67286310046969E-13
      1.49999981926915E+01   1.49999981926890E+01   0.00000000000000E+00   1.03257613228403E-13   2.58197053761666E-08
     -2.50614910281592E-24   2.58198086337799E-08  -1.45158283484645E-29   0.00000000000000E+00   2.58340876817331E-12
      0.00000000000000E+00   1.02549137055746E-11  -2.58300635474854E-08  -5.79343441112173E-24  -2.58198086337799E-08
     -7.19985086083838E-29
      6.17286310046969E-13
      1.49999981926774E+01   1.49999981926749E+01   0.00000000000000E+00   9.54446555612694E-14   2.58197059000054E-08
     -4.12291061156855E-23   2.58198013446609E-08   7.22162460336107E-29   0.00000000000000E+00   2.58340876817331E-12
      0.00000000000000E+00   9.71669630451321E-12  -2.58295180409654E-08  -3.22984118808100E-24  -2.58198013446609E-08
      3.59992543041919E-29
      6.67286310046969E-13
      1.49999981926606E+01   1.49999981926580E+01   0.00000000000000E+00   8.58282604220876E-14   2.58197068953889E-08
     -1.69776834843961E-23   2.58197927236493E-08   9.22359926308680E-29   0.00000000000000E+00   2.58322507869890E-12
      0.00000000000000E+00   7.76179841363050E-12  -2.58275545220628E-08  -2.49185193618415E-24  -2.58197927236492E-08
     -1.43803472838788E-28
      7.17286310046969E-13
      1.49999981926601E+01   1.49999981926576E+01   0.00000000000000E+00   7.88695737198392E-14   2.58197072466523E-08
     -2.08001937321254E-23   2.58197861162260E-08  -7.51194117033036E-30   0.00000000000000E+00   2.58267401027565E-12
      0.00000000000000E+00   4.64235221991885E-12  -2.58244284684459E-08   7.03026705161833E-24  -2.58197861162260E-08
      2.61284910272360E-29
      7.67286310046969E-13
      1.49999981926573E+01   1.49999981926547E+01   0.00000000000000E+00   6.78231131076152E-14   2.58197077862090E-08
      9.40016868867655E-24   2.58197756093221E-08   8.80868850279319E-29   0.00000000000000E+00   2.58285769975007E-12
      0.00000000000000E+00   7.18242230258958E-12  -2.58269580316246E-08  -1.25559653864004E-23  -2.58197756093220E-08
      9.81269996356198E-29
      8.17286310046969E-13
      1.49999981926528E+01   1.49999981926502E+01   0.00000000000000E+00   6.09364833372222E-14   2.58197079425927E-08
     -2.12136661430277E-23   2.58197688790760E-08  -1.61065212049837E-28   0.00000000000000E+00   2.58267401027565E-12
      0.00000000000000E+00   4.35152486399436E-12  -2.58241204039401E-08  -1.14588700387903E-24  -2.58197688790761E-08
      1.55416135517560E-28
      8.67286310046969E-13
      1.49999981926449E+01   1.49999981926424E+01   0.00000000000000E+00   5.31054108514721E-14   2.58197084672700E-08
      6.14301867626259E-24   2.58197615726808E-08  -8.29216694406033E-29   0.00000000000000E+00   2.58249032080124E-12
      0.00000000000000E+00   2.83055083033580E-12  -2.58225921235112E-08  -6.21207357907193E-24  -2.58197615726808E-08
     -9.73528221237017E-29
      9.17286310046969E-13
      1.49999981926448E+01   1.49999981926423E+01   0.00000000000000E+00   4.57742247083706E-14   2.58197086688102E-08
     -1.94922707996794E-24   2.58197544430349E-08   3.06283978152600E-29   0.00000000000000E+00   2.58267401027565E-12
      0.00000000000000E+00   4.91958372822861E-12  -2.58246740267631E-08  -1.20159568704755E-23  -2.58197544430349E-08
      8.14821831293806E-29
      9.67286310046969E-13
      1.49999981926473E+01   1.49999981926448E+01   0.00000000000000E+00   3.72211369125366E-14   2.58197088547831E-08
     -1.61929297249285E-23   2.58197460759200E-08  -1.62081320034230E-28   0.00000000000000E+00   2.58285769975007E-12
      0.00000000000000E+00   6.32928228527074E-12  -2.58260753582053E-08   5.80814359984663E-24  -2.58197460759200E-08
      1.04707508486924E-28
      1.01728631004697E-12
      1.49999981926402E+01   1.49999981926376E+01   0.00000000000000E+00   2.96066434493006E-14   2.58197092313952E-08
      4.71780459051980E-23   2.58197388380386E-08  -1.41202720259688E-28   0.00000000000000E+00   2.58285769975007E-12
      0.00000000000000E+00   5.68739844042618E-12  -2.58254262364791E-08   6.82016050544534E-24  -2.58197388380387E-08
      1.85221969726407E-28
      1.06728631004697E-12
      1.49999981926548E+01   1.49999981926522E+01   0.00000000000000E+00   2.63060087061208E-14   2.58197093577237E-08
     -5.13043318017535E-23   2.58197356637323E-08   1.01852728911726E-29   0.00000000000000E+00   2.58304138922448E-12
      0.00000000000000E+00   7.20819814515802E-12  -2.58269438618775E-08  -6.13649636652827E-24  -2.58197356637323E-08
     -4.31216874138384E-28
      1.11728631004697E-12
      1.49999981926325E+01   1.49999981926300E+01   0.00000000000000E+00   2.11615522742339E-14   2.58197099078140E-08
      4.81062492766113E-23   2.58197310693663E-08  -1.18533834988836E-28   0.00000000000000E+00   2.58249032080124E-12
      0.00000000000000E+00   3.82139854706413E-12  -2.58235524679134E-08   8.37727439981908E-24  -2.58197310693663E-08
      8.69014257128073E-29
      1.16728631004697E-12
      1.49999981926393E+01   1.49999981926367E+01   0.00000000000000E+00   1.47398392825287E-14   2.58197107356477E-08
     -2.44792543679090E-23   2.58197254754870E-08  -1.80818835127372E-28   0.00000000000000E+00   2.58304138922448E-12
      0.00000000000000E+00   7.54793430496766E-12  -2.58272734097919E-08  -1.60733114708497E-23  -2.58197254754870E-08
      4.70312838490249E-29
      1.21728631004697E-12
      1.49999981926354E+01   1.49999981926329E+01   0.00000000000000E+00   1.14854102920200E-14   2.58197115900229E-08
     -8.59010029180675E-24   2.58197230754332E-08   3.59508682096970E-29   0.00000000000000E+00   2.58267401027565E-12
      0.00000000000000E+00   4.27587975324946E-12  -2.58239989551864E-08   1.93021226036978E-23  -2.58197230754332E-08
      1.35481064585668E-30
      1.26728631004697E-12
      1.49999981926331E+01   1.49999981926305E+01   0.00000000000000E+00   7.84683383749546E-15   2.58197129174434E-08
     -4.11109711411420E-23   2.58197207642772E-08  -8.68651361419361E-29   0.00000000000000E+00   2.58267401027565E-12
      0.00000000000000E+00   4.56290480828360E-12  -2.58242836690855E-08   1.02750976034476E-23  -2.58197207642772E-08
      1.95479821759322E-28
      1.31728631004697E-12
      1.49999981926450E+01   1.49999981926424E+01   0.00000000000000E+00   4.83982591248103E-15   2.58197141149722E-08
     -2.62765936234639E-23   2.58197189547981E-08  -1.14916974425344E-28   0.00000000000000E+00   2.58304138922448E-12
      0.00000000000000E+00   8.07448516717823E-12  -2.58277934399653E-08  -3.97870782323660E-24  -2.58197189547981E-08
     -3.01735685270081E-28
      1.36728631004697E-12
      1.49999981926466E+01   1.49999981926440E+01   0.00000000000000E+00   2.55589318672056E-15   2.58197156886467E-08
      5.62238096702440E-23   2.58197182445399E-08  -1.67536852188527E-29   0.00000000000000E+00   2.58322507869890E-12
      0.00000000000000E+00   8.21839103305710E-12  -2.58279366355730E-08   2.81798390378380E-25  -2.58197182445399E-08
      1.36448786475566E-28
      1.41728631004697E-12
      1.49999981926350E+01   1.49999981926324E+01   0.00000000000000E+00  -2.89761509196009E-15   2.58197177318789E-08
     -2.26059712001476E-23   2.58197148342638E-08   1.07308261066024E-28   0.00000000000000E+00   2.58304138922448E-12
      0.00000000000000E+00   6.38694111703029E-12  -2.58261017753808E-08  -2.49166446613178E-23  -2.58197148342638E-08
      3.90959643518643E-29
      1.46728631004697E-12
      1.49999981926432E+01   1.49999981926406E+01   0.00000000000000E+00  -9.20671716641704E-15   2.58197196623074E-08
      5.06461512292968E-23   2.58197104555903E-08   1.00800331356462E-28   0.00000000000000E+00   2.58267401027565E-12
      0.00000000000000E+00   4.12227295585243E-12  -2.58238327285461E-08  -7.89810094594557E-24  -2.58197104555903E-08
      2.62059087784279E-28
      1.51728631004697E-12
      1.49999981926406E+01   1.49999981926381E+01   0.00000000000000E+00  -1.16668656388410E-14   2.58197213736255E-08
      3.71365730689995E-23   2.58197097067599E-08  -2.82574791850108E-29   0.00000000000000E+00   2.58230663132682E-12
      0.00000000000000E+00   2.90165524274828E-12  -2.58226113620026E-08   1.65374131565563E-23  -2.58197097067599E-08
      1.91221845443772E-28
      1.56728631004697E-12
      1.49999981926393E+01   1.49999981926368E+01   0.00000000000000E+00  -1.18847379150290E-14   2.58197229845115E-08
     -4.92707225971116E-23   2.58197110997735E-08  -1.28247343458684E-28   0.00000000000000E+00   2.58249032080124E-12
      0.00000000000000E+00   4.29955348224392E-12  -2.58240106532558E-08  -1.20160516355570E-23  -2.58197110997736E-08
     -1.74964117693492E-28
      1.61728631004697E-12
      1.49999981926366E+01   1.49999981926340E+01   0.00000000000000E+00  -1.61568601788122E-14   2.58197243841446E-08
      3.41241312181400E-23   2.58197082272844E-08  -1.77867283363185E-28   0.00000000000000E+00   2.58267401027565E-12
      0.00000000000000E+00   5.73322564418663E-12  -2.58254414529287E-08  -3.85679872631998E-24  -2.58197082272845E-08
      6.29019228433460E-29
      1.66728631004697E-12
      1.49999981926235E+01   1.49999981926209E+01   0.00000000000000E+00  -2.71155815441889E-14   2.58197257566429E-08
      1.64882671612872E-23   2.58196986410614E-08   4.86643145382271E-29   0.00000000000000E+00   2.58193925237799E-12
      0.00000000000000E+00  -9.60845119459117E-14  -2.58196025565494E-08   7.83064880907853E-24  -2.58196986410614E-08
     -1.29674733246283E-28
      1.71728631004697E-12
      1.49999981926291E+01   1.49999981926265E+01   0.00000000000000E+00  -3.16042318804243E-14   2.58197263776954E-08
     -1.07587208959269E-23   2.58196947734635E-08   1.37404411841840E-28   0.00000000000000E+00   2.58212294185241E-12
      0.00000000000000E+00   1.67053354776854E-12  -2.58213653070112E-08  -5.27134473602733E-24  -2.58196947734635E-08
      2.69026685391541E-29
      1.76728631004697E-12
      1.49999981926439E+01   1.49999981926413E+01   0.00000000000000E+00  -3.17564668245459E-14   2.58197263222541E-08
      3.46641768160532E-23   2.58196945657874E-08  -6.22366140440414E-29   0.00000000000000E+00   2.58285769975007E-12
      0.00000000000000E+00   7.46339469127622E-12  -2.58271579604787E-08   4.66927333221368E-24  -2.58196945657874E-08
      1.90447667931854E-28
      1.81728631004697E-12
      1.49999981926346E+01   1.49999981926321E+01   0.00000000000000E+00  -3.10849848987700E-14   2.58197258787661E-08
      3.70268763069234E-23   2.58196947937813E-08   3.68581074814760E-29   0.00000000000000E+00   2.58267401027565E-12
      0.00000000000000E+00   4.11865422054357E-12  -2.58238134480019E-08   2.57782858635852E-24  -2.58196947937813E-08
     -3.31154430722969E-28
      1.86728631004697E-12
      1.49999981926536E+01   1.49999981926511E+01   0.00000000000000E+00  -2.77347355702996E-14   2.58197251814343E-08
     -1.80493364677551E-23   2.58196974466987E-08   7.22888251753531E-29   0.00000000000000E+00   2.58267401027565E-12
      0.00000000000000E+00   5.93646446258340E-12  -2.58256339111613E-08   6.88826363721954E-24  -2.58196974466987E-08
     -2.78316815534559E-28
      1.91728631004697E-12
      1.49999981926271E+01   1.49999981926245E+01   0.00000000000000E+00  -2.64234447147682E-14   2.58197245006869E-08
     -4.28323664844903E-23   2.58196980772421E-08  -7.26396243604410E-29   0.00000000000000E+00   2.58230663132682E-12
      0.00000000000000E+00   1.13976236631704E-12  -2.58208378396084E-08   1.98576190301036E-23  -2.58196980772421E-08
     -5.45795145902264E-29
      1.96728631004697E-12
      1.49999981926464E+01   1.49999981926439E+01   0.00000000000000E+00  -3.01314650667606E-14   2.58197235679586E-08
     -7.19863905593354E-23   2.58196934364935E-08  -4.68014499001742E-29   0.00000000000000E+00   2.58304138922448E-12
      0.00000000000000E+00   9.36840585997661E-12  -2.58290618423534E-08   1.08698020522360E-24  -2.58196934364934E-08
      5.14828045425540E-29
      2.01728631004697E-12
      1.49999981926314E+01   1.49999981926289E+01   0.00000000000000E+00  -2.94567877084634E-14   2.58197224333489E-08
      4.30770746460447E-23   2.58196929765613E-08   4.83981910185053E-29   0.00000000000000E+00   2.58249032080124E-12
      0.00000000000000E+00   3.05361088317131E-12  -2.58227465874444E-08  -5.93250010799647E-24  -2.58196929765612E-08
     -2.07092484438093E-29
      2.06728631004697E-12
      1.49999981926552E+01   1.49999981926526E+01   0.00000000000000E+00  -2.91715487316324E-14   2.58197212605468E-08
     -4.21066802122944E-23   2.58196920889980E-08  -2.56083405114161E-29   0.00000000000000E+00   2.58285769975007E-12
      0.00000000000000E+00   6.72203574061020E-12  -2.58264141247387E-08   1.15910302453841E-23  -2.58196920889980E-08
     -3.10058093523201E-28
      2.11728631004697E-12
      1.49999981926387E+01   1.49999981926361E+01   0.00000000000000E+00  -2.57675041952869E-14   2.58197197977574E-08
     -1.72308298584179E-23   2.58196940302531E-08  -3.14509614216730E-31   0.00000000000000E+00   2.58267401027565E-12
      0.00000000000000E+00   4.45165845891416E-12  -2.58241456887121E-08   5.79642569151789E-24  -2.58196940302532E-08
     -8.24499050192782E-29
      2.16728631004697E-12
      1.49999981926364E+01   1.49999981926338E+01   0.00000000000000E+00  -2.59182745443877E-14   2.58197188542125E-08
     -2.35088599341588E-23   2.58196929359379E-08   3.47170228000775E-30   0.00000000000000E+00   2.58304138922448E-12
      0.00000000000000E+00   8.74931827167944E-12  -2.58284422542096E-08   9.65751768804833E-24  -2.58196929359379E-08
      3.89217744116827E-28
      2.21728631004697E-12
      1.49999981926334E+01   1.49999981926309E+01   0.00000000000000E+00  -2.79761957291339E-14   2.58197178843091E-08
     -1.77539990313963E-23   2.58196899081134E-08   1.18424966276223E-29   0.00000000000000E+00   2.58304138922448E-12
      0.00000000000000E+00   7.87817880611276E-12  -2.58275680869195E-08   2.01133611433121E-23  -2.58196899081134E-08
      1.49996892934133E-28
      2.26728631004697E-12
      1.49999981926369E+01   1.49999981926343E+01   0.00000000000000E+00  -3.38196301325427E-14   2.58197167927721E-08
     -7.89394776324678E-23   2.58196829731419E-08  -4.18539717380726E-29   0.00000000000000E+00   2.58267401027565E-12
      0.00000000000000E+00   4.21933105367692E-12  -2.58239023041955E-08  -4.52061164078984E-24  -2.58196829731419E-08
     -1.65867531928454E-28
      2.31728631004697E-12
      1.49999981926204E+01   1.49999981926178E+01   0.00000000000000E+00  -3.47883893514261E-14   2.58197157269270E-08
     -4.44693797031646E-23   2.58196809385376E-08   1.08868712613484E-30   0.00000000000000E+00   2.58212294185241E-12
      0.00000000000000E+00  -2.68064100137858E-13  -2.58194128744374E-08   1.06689000796236E-24  -2.58196809385376E-08
     -9.73528221237017E-29
      2.36728631004697E-12
      1.49999981926516E+01   1.49999981926490E+01   0.00000000000000E+00  -3.07195207485708E-14   2.58197144273719E-08
     -5.14140285638296E-23   2.58196837078511E-08   7.83249904635895E-29   0.00000000000000E+00   2.58267401027565E-12
      0.00000000000000E+00   6.40953692529379E-12  -2.58260932447763E-08   9.97559050350627E-24  -2.58196837078510E-08
     -1.49803348556153E-28
      2.41728631004697E-12
      1.49999981926447E+01   1.49999981926422E+01   0.00000000000000E+00  -2.58863450569509E-14   2.58197130266937E-08
     -3.06222730441716E-23   2.58196871403486E-08   6.60470189855133E-29   0.00000000000000E+00   2.58322507869890E-12
      0.00000000000000E+00   9.58835311555798E-12  -2.58292754934642E-08   9.17274485392912E-24  -2.58196871403486E-08
     -4.54635743873907E-28
      2.46728631004697E-12
      1.49999981926316E+01   1.49999981926290E+01   0.00000000000000E+00  -2.41456125817018E-14   2.58197124709492E-08
     -4.37436934309688E-23   2.58196883253366E-08   1.81568819592043E-29   0.00000000000000E+00   2.58267401027565E-12
      0.00000000000000E+00   3.07109965466735E-12  -2.58227594249912E-08   9.25938485967343E-24  -2.58196883253365E-08
     -8.67078813348278E-29
      2.51728631004697E-12
      1.49999981926414E+01   1.49999981926389E+01   0.00000000000000E+00  -2.27247398987587E-14   2.58197115077328E-08
      1.73236501955592E-23   2.58196887829929E-08  -8.22079745468038E-29   0.00000000000000E+00   2.58267401027565E-12
      0.00000000000000E+00   6.54712555138438E-12  -2.58262359085443E-08   1.07940559106341E-23  -2.58196887829929E-08
      1.31997265782037E-28
      2.56728631004697E-12
      1.49999981926479E+01   1.49999981926453E+01   0.00000000000000E+00  -2.52800139815261E-14   2.58197107080276E-08
     -7.98592427914137E-23   2.58196854280136E-08   1.57811247195056E-28   0.00000000000000E+00   2.58322507869890E-12
      0.00000000000000E+00   9.01592837281946E-12  -2.58287013563864E-08   7.50014528707073E-24  -2.58196854280136E-08
      1.32964987671935E-28
      2.61728631004697E-12
      1.49999981926290E+01   1.49999981926264E+01   0.00000000000000E+00  -2.64025814831336E-14   2.58197100957147E-08
      1.18219356668185E-23   2.58196836931332E-08   1.40501121889512E-28   0.00000000000000E+00   2.58285769975007E-12
      0.00000000000000E+00   4.88644165517191E-12  -2.58245701347884E-08  -3.76691198648177E-24  -2.58196836931332E-08
      8.10950943734215E-29
      2.66728631004697E-12
      1.49999981926289E+01   1.49999981926263E+01   0.00000000000000E+00  -3.08300389718458E-14   2.58197097961665E-08
     -5.67976081180268E-23   2.58196789661274E-08  -1.39134214720032E-28   0.00000000000000E+00   2.58267401027565E-12
      0.00000000000000E+00   4.13436882299975E-12  -2.58238133349505E-08  -4.10165521582793E-24  -2.58196789661275E-08
      3.24961010627625E-28
      2.71728631004697E-12
      1.49999981926371E+01   1.49999981926345E+01   0.00000000000000E+00  -2.88507348904528E-14   2.58197088954916E-08
     -1.71295713088091E-23   2.58196800447567E-08   2.74760437589185E-28   0.00000000000000E+00   2.58267401027565E-12
      0.00000000000000E+00   4.56236255874664E-12  -2.58242424073154E-08  -1.70117783126029E-23  -2.58196800447567E-08
     -1.37803597121423E-28
      2.76728631004697E-12
      1.49999981926262E+01   1.49999981926237E+01   0.00000000000000E+00  -2.64323479756212E-14   2.58197084752196E-08
      2.87152370265407E-23   2.58196820428716E-08  -1.73827044472862E-29   0.00000000000000E+00   2.58249032080124E-12
      0.00000000000000E+00   3.29324366938435E-12  -2.58229752865411E-08   3.24461630034081E-24  -2.58196820428717E-08
     -1.37416508365464E-29
      2.81728631004697E-12
      1.49999981926305E+01   1.49999981926279E+01   0.00000000000000E+00  -2.75859091693331E-14   2.58197079897384E-08
      1.02693045728181E-23   2.58196804038293E-08  -1.98382987429014E-28   0.00000000000000E+00   2.58212294185241E-12
      0.00000000000000E+00   1.23563779830929E-12  -2.58209160416276E-08  -2.01266818175832E-23  -2.58196804038293E-08
      1.90641212309833E-28
      2.86728631004697E-12
      1.49999981926497E+01   1.49999981926471E+01   0.00000000000000E+00  -2.84197908206781E-14   2.58197070756639E-08
     -4.86462948745245E-23   2.58196786558730E-08  -9.58044670998655E-30   0.00000000000000E+00   2.58267401027565E-12
      0.00000000000000E+00   5.24629340906304E-12  -2.58249249492821E-08  -4.19906547908677E-24  -2.58196786558730E-08
     -2.76768460510723E-28
      2.91728631004697E-12
      1.49999981926349E+01   1.49999981926323E+01   0.00000000000000E+00  -2.67233992774469E-14   2.58197063625061E-08
     -5.61984950328418E-24   2.58196796391068E-08   4.68982220891640E-29   0.00000000000000E+00   2.58267401027565E-12
      0.00000000000000E+00   5.50077722348395E-12  -2.58251804163303E-08  -3.44440993352263E-24  -2.58196796391068E-08
      2.57414022712770E-29
      2.96728631004697E-12
      1.49999981926519E+01   1.49999981926493E+01   0.00000000000000E+00  -2.24752849480965E-14   2.58197059939681E-08
     -2.25215890754737E-23   2.58196835186831E-08  -8.03088203378797E-29   0.00000000000000E+00   2.58322507869890E-12
      0.00000000000000E+00   9.16173763127889E-12  -2.58288452563144E-08  -2.59939917900039E-23  -2.58196835186831E-08
      1.28319922600426E-28
      3.01728631004697E-12