DF-ISE text

Info {
  version   = 1.0
  type      = xyplot
  datasets  = [
    "time"
    "ntype OuterVoltage" "ntype InnerVoltage" "ntype QuasiFermiPotential" "ntype DisplacementCurrent" "ntype eCurrent"
    "ntype hCurrent" "ntype TotalCurrent" "ntype Charge" "ptype OuterVoltage" "ptype InnerVoltage"
    "ptype QuasiFermiPotential" "ptype DisplacementCurrent" "ptype eCurrent" "ptype hCurrent" "ptype TotalCurrent"
    "ptype Charge" ]
  functions = [
    Time
    OuterVoltage InnerVoltage QuasiFermiPotential DisplacementCurrent eCurrent
    hCurrent TotalCurrent Charge OuterVoltage InnerVoltage
    QuasiFermiPotential DisplacementCurrent eCurrent hCurrent TotalCurrent
    Charge ]
}

Data {
      1.00000000000000E-15
     -5.84376611906319E-09  -5.84377446408345E-09   0.00000000000000E+00  -1.20926903171932E-13   1.20930131082083E-13
      6.16955474876613E-28   3.22791015139257E-18   6.16015465537961E-29   0.00000000000000E+00   1.15301883090329E-12
      0.00000000000000E+00  -2.66999549634115E-09   2.66999549311324E-09   1.41168812146385E-25  -3.22790999451586E-18
     -1.24255490662856E-28
      2.30000000000000E-15
     -4.81038441908323E-09  -4.81039130204036E-09   0.00000000000000E+00  -3.23919519873722E-13   3.23969474515527E-13
     -3.53987033455189E-28   4.99546418047572E-17   3.91322539227355E-29   0.00000000000000E+00   9.91923161841289E-15
      0.00000000000000E+00  -1.76781255002590E-09   1.76781250007125E-09  -5.08023240834785E-27  -4.99546419368438E-17
     -2.72897572951132E-28
      3.99000000000000E-15
     -4.09460862697920E-09  -4.09461447403395E-09   0.00000000000000E+00  -5.42374962792816E-13   5.42741334188021E-13
     -6.83082223431928E-28   3.66371395204320E-16   7.82403147982235E-29   0.00000000000000E+00  -7.23736529195311E-14
      0.00000000000000E+00  -1.19463270620210E-09   1.19463233983070E-09  -6.13990172912803E-26  -3.66371395038035E-16
      3.98701418637824E-28
      6.18700000000000E-15
     -2.90117782423850E-09  -2.90118198409750E-09   0.00000000000000E+00  -7.67691637665661E-13   7.68812509758443E-13
     -3.54313945651832E-28   1.12087209278106E-15  -1.04634929345181E-29   0.00000000000000E+00   3.67378948830107E-14
      0.00000000000000E+00  -5.22785839841549E-10   5.22784718969456E-10   9.11598881059985E-27  -1.12087209272350E-15
      3.83024324021482E-28
      9.04310000000000E-15
     -2.15388013422756E-09  -2.15388321567884E-09   0.00000000000000E+00  -9.72865237254763E-13   9.75374291898610E-13
      1.68477376184065E-28   2.50905464384706E-15   4.72974073687467E-29   0.00000000000000E+00  -2.13079790321462E-14
      0.00000000000000E+00  -2.28215998847083E-10   2.28213489792440E-10  -9.03538698863042E-26  -2.50905464380567E-15
     -2.21027679652619E-28
      1.27560300000000E-14
     -1.76589293271204E-09  -1.76589545587858E-09   0.00000000000000E+00  -1.17174764161202E-12   1.17646703671989E-12
      2.32438924353508E-28   4.71939510786965E-15   1.00383001291444E-28   0.00000000000000E+00  -3.98606159480666E-14
      0.00000000000000E+00  -1.70805790199599E-10   1.70801070804491E-10  -3.70665375536085E-26  -4.71939510788816E-15
      5.34182483223492E-29
      1.75828390000000E-14
     -1.51368410720751E-09  -1.51368627148433E-09   0.00000000000000E+00  -1.37585304193434E-12   1.38382472890627E-12
     -1.42064799864789E-29   7.97168697192833E-15   1.92395208235273E-29   0.00000000000000E+00  -6.31891791987784E-14
      0.00000000000000E+00  -2.10550083327307E-10   2.10542111640335E-10  -1.82903817529015E-25  -7.97168697191481E-15
      4.32571684784241E-28
      2.38576907000000E-14
     -6.32701989306214E-10  -6.32702895823248E-10   0.00000000000000E+00  -1.55464051081425E-12   1.56710482836840E-12
      7.61009494435746E-29   1.24643175541451E-14   2.95941450454319E-29   0.00000000000000E+00   1.23071947858086E-14
      0.00000000000000E+00   4.35076944067082E-11  -4.35201587242624E-11  -2.44254422224352E-26  -1.24643175541556E-14
     -3.58250643640103E-28
      3.20149979100000E-14
     -6.99330279625754E-11  -6.99331086400841E-11   0.00000000000000E+00  -1.61728944429464E-12   1.63516994280882E-12
      1.05609572900118E-28   1.78804985141749E-14   1.60520868486770E-29   0.00000000000000E+00   1.50625369020344E-14
      0.00000000000000E+00   7.49775741790316E-11  -7.49954546775458E-11   1.91494993198485E-26  -1.78804985141928E-14
      1.66448165062393E-28
      4.26194972830000E-14
      2.51019477751500E-10   2.51019840969782E-10   0.00000000000000E+00  -1.57263029000311E-12   1.59589069840938E-12
      4.43246100666325E-29   2.32604084062702E-14   6.19644422625077E-29   0.00000000000000E+00   1.94710842879957E-14
      0.00000000000000E+00   6.80999271504745E-11  -6.81231875588808E-11   5.40907754143079E-27  -2.32604084062890E-14
     -3.92895087298438E-29
      5.64053464679000E-14
      2.96168033032798E-10   2.96168440623756E-10   0.00000000000000E+00  -1.43562756690640E-12   1.46304830236458E-12
      7.61093496941761E-30   2.74207354581772E-14   4.58881623665833E-29   0.00000000000000E+00   7.71495792543225E-15
      0.00000000000000E+00   3.38084123099145E-11  -3.38358330453727E-11   8.64177713278291E-27  -2.74207354581953E-14
      2.92639099505044E-28
      7.43269504082700E-14
      6.38633800835749E-11   6.38634573369875E-11   0.00000000000000E+00  -1.29501806247766E-12   1.32445193490496E-12
     -4.76215660255354E-30   2.94338724272942E-14  -1.55319363328570E-29   0.00000000000000E+00  -4.59223686037634E-15
      0.00000000000000E+00  -4.46407822701689E-11   4.46113483977416E-11   5.94374058572480E-28  -2.94338724272932E-14
     -4.81925501169020E-29
      9.76250355307510E-14
      1.54822864391682E-10   1.54823086812045E-10   0.00000000000000E+00  -1.13873321059933E-12   1.16852649269700E-12
     -3.01095043645715E-29   2.97932820976775E-14   5.34666344168441E-29   0.00000000000000E+00  -2.93903159064086E-15
      0.00000000000000E+00  -1.68584548274714E-12   1.65605220064946E-12   1.96730087973244E-27  -2.97932820976767E-14
      8.65143369568482E-29
      1.27912546189976E-13
      2.62285910556333E-10   2.62286297115924E-10   0.00000000000000E+00  -9.07718844054948E-13   9.35744621981286E-13
      5.11979284646449E-29   2.80257779263378E-14   6.05854385694036E-29   0.00000000000000E+00   4.04116843713118E-15
      0.00000000000000E+00   3.11113312836740E-11  -3.11393570616004E-11  -4.40487025709363E-27  -2.80257779263364E-14
     -7.21920529863633E-29
      1.67286310046969E-13
     -1.68319018592881E-10  -1.68319280604558E-10   0.00000000000000E+00  -7.62018564722227E-13   7.87035099024703E-13
      3.17358574606785E-29   2.50165343024759E-14   4.48841509058145E-29   0.00000000000000E+00  -9.18447372075268E-15
      0.00000000000000E+00  -8.04319767073876E-11   8.04069601730851E-11  -1.64807066846351E-26  -2.50165343024961E-14
      6.75469879148547E-29
      2.17286310046969E-13
      1.54102213253008E-10   1.54102450042731E-10   0.00000000000000E+00  -6.01739573388133E-13   6.24772504388325E-13
     -1.56533211947348E-30   2.30329310001925E-14  -5.84262091025695E-29   0.00000000000000E+00  -1.28582632090537E-15
      0.00000000000000E+00   6.64755603824154E-12  -6.67058896924173E-12   1.73084687265100E-27  -2.30329310001859E-14
      1.02965609085108E-28
      2.67286310046969E-13
      1.29466860291130E-10   1.29467050987477E-10   0.00000000000000E+00  -3.60908264348182E-13   3.80707341056395E-13
      3.13183905269447E-30   1.97990767082133E-14   4.14608347203016E-29   0.00000000000000E+00   7.34757897660214E-16
      0.00000000000000E+00   5.57581631276431E-12  -5.59561538947253E-12   1.08963749021051E-27  -1.97990767082128E-14
      9.29013014301726E-29
      3.17286310046969E-13
      8.77523105525490E-11   8.77524342129553E-11   0.00000000000000E+00  -1.91789836981770E-13   2.08262197876134E-13
      8.09585193894349E-30   1.64723608943640E-14  -1.46670348937610E-29   0.00000000000000E+00   9.18447372075267E-16
      0.00000000000000E+00   5.01328169852286E-12  -5.02975405941722E-12  -4.53149462497391E-27  -1.64723608943641E-14
     -2.01286153098707E-28
      3.67286310046969E-13
      7.20622725056559E-11   7.20623681439505E-11   0.00000000000000E+00  -6.55387269545530E-14   7.93907613337915E-14
      6.95534946270075E-30   1.38520343792385E-14  -6.82909241177135E-29   0.00000000000000E+00   1.83689474415054E-16
      0.00000000000000E+00  -4.38815534423247E-13   4.24963500044010E-13  -1.27765475942913E-27  -1.38520343792388E-14
      2.51607691373384E-29
      4.17286310046969E-13
      7.39858953468726E-11   7.39860102423935E-11   0.00000000000000E+00   3.88863257865435E-14  -2.71456046684935E-14
     -1.02340135066519E-31   1.17407211180500E-14  -4.86280249673560E-30   0.00000000000000E+00   3.67378948830107E-16
      0.00000000000000E+00   4.32174325873366E-12  -4.33348397985171E-12  -2.94376909854159E-27  -1.17407211180498E-14
     -7.95467393495853E-29
      4.67286310046969E-13
      6.30548173976430E-11   6.30549021929810E-11   0.00000000000000E+00   1.18615023575734E-13  -1.08698049936293E-13
      5.30648426148387E-30   9.91697363944089E-15   1.58403976852619E-29   0.00000000000000E+00   9.18447372075267E-16
      0.00000000000000E+00   6.11263272555404E-12  -6.12254969919347E-12  -9.10301655251132E-27  -9.91697363944076E-15
     -1.43222839704849E-28
      5.17286310046969E-13
      5.28091475650591E-11   5.28092314173483E-11   0.00000000000000E+00   1.86137287527539E-13  -1.77836152016508E-13
     -1.44343219714207E-30   8.30113551103094E-15   3.97007905330503E-29   0.00000000000000E+00   3.67378948830107E-16
      0.00000000000000E+00   1.96120488979624E-12  -1.96950602530726E-12  -3.70647671461771E-27  -8.30113551103045E-15
     -1.57351579297355E-28
      5.67286310046969E-13
      5.98749178632729E-11   5.98750077790134E-11   0.00000000000000E+00   2.31897054277518E-13  -2.24916896088479E-13
     -1.15769260261613E-30   6.98015818903855E-15  -1.58162046380144E-29   0.00000000000000E+00   9.18447372075267E-16
      0.00000000000000E+00   7.44326153375170E-12  -7.45024169194074E-12   2.03260477203295E-27  -6.98015818903760E-15
      2.04769951902339E-28
      6.17286310046969E-13
      4.80902710410945E-11   4.80903406643627E-11   0.00000000000000E+00   2.76576825806293E-13  -2.70950637991841E-13
      2.73436741690432E-30   5.62618781445162E-15   3.45174301602861E-29   0.00000000000000E+00   5.51068423245161E-16
      0.00000000000000E+00   3.86330637413171E-12  -3.86893256194616E-12   2.38996955937504E-27  -5.62618781445092E-15
     -3.44508992803557E-29
      6.67286310046969E-13
      3.14870745479109E-11   3.14871082956721E-11   0.00000000000000E+00   2.87774287900891E-13  -2.83158187434816E-13
      3.59708462778059E-30   4.61610046607462E-15  -1.53746815257486E-29   0.00000000000000E+00   9.18447372075267E-16
      0.00000000000000E+00   5.66683179806788E-12  -5.67144789853395E-12   4.12093714162365E-27  -4.61610046607352E-15
     -1.83092981568632E-28
      7.17286310046969E-13
      1.74412402865641E-11   1.74412696733407E-11   0.00000000000000E+00   2.92567976824700E-13  -2.88684552133148E-13
     -8.10790949839245E-31   3.88342469155169E-15   6.34099768355423E-29   0.00000000000000E+00   3.67378948830107E-16
      0.00000000000000E+00   2.58576597332884E-12  -2.58964939802039E-12  -2.10643880923039E-27  -3.88342469155103E-15
     -1.79802727142980E-28
      7.67286310046969E-13
      3.51225066908782E-11   3.51225526061890E-11   0.00000000000000E+00   2.88784570575522E-13  -2.85410783310001E-13
     -7.83653966313739E-30   3.37378726552128E-15  -9.12259329082873E-29   0.00000000000000E+00   3.67378948830107E-16
      0.00000000000000E+00   3.78382748917927E-12  -3.78720127644479E-12  -1.29547149603459E-27  -3.37378726552105E-15
     -1.62577277502802E-28
      8.17286310046969E-13
      1.40285287916315E-11   1.40285488505521E-11   0.00000000000000E+00   2.85956242598414E-13  -2.83136817235609E-13
      3.81840669995439E-30   2.81942536280413E-15   1.32396451061620E-29   0.00000000000000E+00   0.00000000000000E+00
      0.00000000000000E+00   4.46841529823108E-13  -4.49660955185910E-13  -2.42024352645262E-27  -2.81942536280408E-15
     -4.57925998299559E-28
      8.67286310046969E-13
      5.00364372341959E-11   5.00365076846059E-11   0.00000000000000E+00   2.83181417160637E-13  -2.80814371082875E-13
      3.92990295286249E-30   2.36704607776188E-15   2.33462905937804E-29   0.00000000000000E+00   7.34757897660214E-16
      0.00000000000000E+00   7.07430098092086E-12  -7.07666802699863E-12   7.36935312258303E-27  -2.36704607776126E-15
     -3.86701667203093E-28
      9.17286310046969E-13
      2.63288540251832E-11   2.63288782422544E-11   0.00000000000000E+00   2.89238225108368E-13  -2.87577332233685E-13
      8.50312027807249E-30   1.66089287468331E-15   2.96848689726098E-29   0.00000000000000E+00   5.51068423245161E-16
      0.00000000000000E+00   3.24075603330518E-12  -3.24241692617986E-12   1.09911721727520E-27  -1.66089287468355E-15
     -3.34638229526601E-28
      9.67286310046969E-13
      1.33999127535758E-11   1.33999175467351E-11   0.00000000000000E+00   2.71379714839624E-13  -2.70195902068064E-13
      1.94900794193508E-30   1.18381277156047E-15   1.15449221464787E-28   0.00000000000000E+00   1.83689474415054E-16
      0.00000000000000E+00   1.61826594102821E-12  -1.61944975379977E-12  -3.68280153887549E-27  -1.18381277156062E-15
     -6.12761500683180E-28
      1.01728631004697E-12
      1.97520465834436E-11   1.97520603002978E-11   0.00000000000000E+00   2.60496213048252E-13  -2.59626709452758E-13
     -8.32825679280764E-31   8.69503595494766E-16   2.01346635716826E-29   0.00000000000000E+00   1.83689474415054E-16
      0.00000000000000E+00   1.62177983727923E-12  -1.62264934087472E-12   7.38098952779147E-28  -8.69503595494146E-16
     -2.34382241733206E-28
      1.06728631004697E-12
      2.33883449244017E-11   2.33883771358182E-11   0.00000000000000E+00   2.45122784592360E-13  -2.44527725276115E-13
     -6.89104801651850E-30   5.95059316245421E-16  -1.08989677849721E-29   0.00000000000000E+00   3.67378948830107E-16
      0.00000000000000E+00   2.91406527301807E-12  -2.91466033233430E-12  -6.65592721155291E-27  -5.95059316245168E-16
     -2.08060206327991E-28
      1.11728631004697E-12
      2.14659488238856E-11   2.14659979025118E-11   0.00000000000000E+00   2.36960780248049E-13  -2.36702472304379E-13
     -1.05795537041736E-29   2.58307943670191E-16  -1.82052680536992E-30   0.00000000000000E+00   3.67378948830107E-16
      0.00000000000000E+00   3.65225189462768E-12  -3.65251020257135E-12  -7.88378523831962E-28  -2.58307943670543E-16
     -7.21920529863633E-29
      1.16728631004697E-12
      2.13272793344561E-11   2.13273123493284E-11   0.00000000000000E+00   2.21445023834620E-13  -2.21474690411464E-13
     -1.85807202975699E-30  -2.96665768434462E-17   2.56446300822872E-29   0.00000000000000E+00   9.18447372075267E-16
      0.00000000000000E+00   7.60216911229748E-12  -7.60213944572064E-12   7.62949035271319E-28   2.96665768445418E-17
     -1.17868526189531E-28
      1.21728631004697E-12
      2.51971548093579E-12   2.51971444291989E-12   0.00000000000000E+00   2.02249707339418E-13  -2.02459318623369E-13
     -1.52549673361239E-30  -2.09611283951613E-16   3.40698587862085E-29   0.00000000000000E+00   1.83689474415054E-16
      0.00000000000000E+00  -1.37050775402546E-13   1.37260386686497E-13  -5.72324438744581E-29   2.09611283951011E-16
     -6.03084281784204E-28
      1.26728631004697E-12
      2.22859347045578E-11   2.22859647551163E-11   0.00000000000000E+00   1.84341452948310E-13  -1.84605030686341E-13
      2.82676673868386E-30  -2.63577738031841E-16  -9.63488106629329E-30   0.00000000000000E+00  -1.83689474415054E-16
      0.00000000000000E+00  -1.09392131669835E-12   1.09418489443638E-12   2.63154165339464E-27   2.63577738033959E-16
     -2.16382614581110E-28
      1.31728631004697E-12
      1.63178127242716E-11   1.63178248478183E-11   0.00000000000000E+00   1.79972708479791E-13  -1.80494199261173E-13
      6.38957518843170E-31  -5.21490781382542E-16   6.71296578498363E-29   0.00000000000000E+00   5.51068423245161E-16
      0.00000000000000E+00   5.69510267511698E-12  -5.69458118433560E-12  -2.87481977639362E-28   5.21490781381919E-16
     -3.59992543041919E-29
      1.36728631004697E-12
      2.18932805913286E-11   2.18933285035541E-11   0.00000000000000E+00   1.68904913588919E-13  -1.69661642836294E-13
      4.80252135542040E-30  -7.56729247375254E-16   8.17724996963498E-30   0.00000000000000E+00   7.34757897660214E-16
      0.00000000000000E+00   5.09523096076531E-12  -5.09447423151793E-12  -3.14891103600611E-28   7.56729247374000E-16
     -2.20640590896660E-28
      1.41728631004697E-12
      9.11552363994682E-12   9.11554424547843E-12   0.00000000000000E+00   1.60115777267954E-13  -1.61102523433647E-13
      8.23332699763346E-30  -9.86746165693447E-16  -9.04819967054285E-30   0.00000000000000E+00   7.34757897660214E-16
      0.00000000000000E+00   4.15984175235831E-12  -4.15885500619261E-12  -1.01473316124770E-27   9.86746165693043E-16
      1.54835502383621E-29
      1.46728631004697E-12
      1.53611735324446E-11   1.53611930262490E-11   0.00000000000000E+00   1.47032416064311E-13  -1.48152972573945E-13
     -1.27428544742195E-30  -1.12055650963419E-15   6.77768218637054E-29   0.00000000000000E+00   7.34757897660214E-16
      0.00000000000000E+00   5.38968177739666E-12  -5.38856122088703E-12   1.91561303004099E-27   1.12055650963472E-15
      2.69026685391541E-29
      1.51728631004697E-12
      8.14739794250459E-12   8.14740887057389E-12   0.00000000000000E+00   1.40847189218436E-13  -1.42155971495387E-13
     -3.96854631856539E-30  -1.30878227695105E-15   7.25609969568868E-29   0.00000000000000E+00   3.67378948830107E-16
      0.00000000000000E+00   2.13753922654017E-12  -2.13623044426322E-12  -2.57819605856284E-28   1.30878227695079E-15
     -4.05475471867108E-28
      1.56728631004697E-12
      3.63657954212912E-11   3.63658318525830E-11   0.00000000000000E+00   1.38742824594090E-13  -1.40251455493351E-13
      6.60624472691564E-30  -1.50863089926038E-15  -5.20755342001163E-30   0.00000000000000E+00   1.10213684649032E-15
      0.00000000000000E+00   8.77103905103273E-12  -8.76953042013347E-12   3.04915662455113E-27   1.50863089925897E-15
     -1.89479946041956E-28
      1.61728631004697E-12
      1.07833548872808E-11   1.07833528284299E-11   0.00000000000000E+00   1.37611281791559E-13  -1.39475328344595E-13
      9.38925432091206E-30  -1.86404655303583E-15  -1.75278627307708E-29   0.00000000000000E+00   9.18447372075267E-16
      0.00000000000000E+00   5.95453216347834E-12  -5.95266811692530E-12  -1.59359201287559E-27   1.86404655303591E-15
     -3.13348347948853E-28
      1.66728631004697E-12
      1.24782236693326E-11   1.24782326476733E-11   0.00000000000000E+00   1.24331655088620E-13  -1.26343215654738E-13
     -4.07978391573708E-30  -2.01156056611864E-15  -1.86286463805294E-29   0.00000000000000E+00   5.51068423245161E-16
      0.00000000000000E+00   3.37181376000284E-12  -3.36980219943672E-12  -2.56876461533718E-27   2.01156056611835E-15
     -3.58250643640103E-28
      1.71728631004697E-12
      3.07258395249002E-12   3.07257383854060E-12   0.00000000000000E+00   1.11050973544566E-13  -1.13105222902009E-13
      7.39561259797465E-31  -2.05424935744358E-15  -1.93302447507052E-29   0.00000000000000E+00   1.83689474415054E-16
      0.00000000000000E+00   1.20615923943670E-12  -1.20410499007925E-12  -7.22929780014334E-28   2.05424935744338E-15
     -5.01279938966973E-28
      1.76728631004697E-12
      2.74011719389516E-11   2.74012114715209E-11   0.00000000000000E+00   1.06804259995585E-13  -1.08908667366915E-13
     -1.08662609169087E-29  -2.10440737132923E-15  -5.10110401212289E-29   0.00000000000000E+00   5.51068423245161E-16
      0.00000000000000E+00   4.48431631457844E-12  -4.48221190720711E-12  -1.60006204730684E-27   2.10440737133037E-15
     -3.33864052014683E-28
      1.81728631004697E-12
      9.22662848258247E-12   9.22665341631523E-12   0.00000000000000E+00   1.08851139933465E-13  -1.11239816170350E-13
     -6.24070650830569E-30  -2.38867623688493E-15   4.90393067705625E-29   0.00000000000000E+00   5.51068423245161E-16
      0.00000000000000E+00   4.28339309874160E-12  -4.28100442250471E-12  -1.61950433982662E-27   2.38867623688487E-15
     -4.25797631554958E-28
      1.86728631004697E-12
      3.11201598380347E-11   3.11201885705280E-11   0.00000000000000E+00   1.06432445728142E-13  -1.09019959515042E-13
     -7.38687381841258E-30  -2.58751378689957E-15  -3.45839610402166E-29   0.00000000000000E+00   9.18447372075267E-16
      0.00000000000000E+00   6.13201655923506E-12  -6.12942904544816E-12  -2.96221352505456E-27   2.58751378689897E-15
     -4.93925252603751E-28
      1.91728631004697E-12
      1.62015004497867E-11   1.62015264493292E-11   0.00000000000000E+00   1.11336759164593E-13  -1.14259508357172E-13
     -5.78685831864565E-30  -2.92274919257930E-15   6.23333862330312E-29   0.00000000000000E+00   5.51068423245161E-16
      0.00000000000000E+00   4.29919492119062E-12  -4.29627217199804E-12  -1.73833086770208E-27   2.92274919257877E-15
     -1.40126129657177E-28
      1.96728631004697E-12
      2.38881274277078E-11   2.38881502733330E-11   0.00000000000000E+00   1.05547025586003E-13  -1.08683199012829E-13
     -6.42254678632072E-30  -3.13617342682607E-15   4.38438498741746E-29   0.00000000000000E+00   1.10213684649032E-15
      0.00000000000000E+00   8.39852782830979E-12  -8.39539165488297E-12   1.64759748684093E-27   3.13617342682594E-15
     -8.90304138705821E-30
      2.01728631004697E-12
     -7.47718362689583E-14  -7.47845772712287E-14   0.00000000000000E+00   9.56389524348132E-14  -9.89061692807623E-14
     -3.21036794586989E-30  -3.26721684594911E-15   6.35611833808388E-29   0.00000000000000E+00   3.67378948830107E-16
      0.00000000000000E+00   1.49886127233393E-12  -1.49559405548798E-12  -2.35856092208005E-27   3.26721684594931E-15
     -3.89991921628745E-28
      2.06728631004697E-12
      3.32148460855364E-11   3.32148914920201E-11   0.00000000000000E+00   8.92112782994312E-14  -9.24744452128865E-14
      1.22127254678603E-29  -3.26316691345527E-15   9.93003624271207E-29   0.00000000000000E+00   9.18447372075267E-16
      0.00000000000000E+00   8.32544712826472E-12  -8.32218396135128E-12   9.92553175054399E-27   3.26316691345443E-15
     -2.23737300944332E-28
      2.11728631004697E-12
      1.31184292306960E-11   1.31184363883784E-11   0.00000000000000E+00   9.10409245725584E-14  -9.45266621695131E-14
     -1.35235544324543E-30  -3.48573759695467E-15  -2.99086546596487E-29   0.00000000000000E+00   7.34757897660214E-16
      0.00000000000000E+00   5.18337584010042E-12  -5.17989010250346E-12   3.28314010853507E-28   3.48573759695437E-15
     -5.25666530592393E-28
      2.16728631004697E-12
      1.34067240987391E-11   1.34067370184728E-11   0.00000000000000E+00   8.10627127007466E-14  -8.46421153932210E-14
     -2.66836979864516E-30  -3.57940269247431E-15   3.84729933852427E-29   0.00000000000000E+00   1.10213684649032E-15
      0.00000000000000E+00   8.50338121062539E-12  -8.49980180793291E-12  -1.09610752464176E-27   3.57940269247467E-15
     -2.67865419123664E-28
      2.21728631004697E-12
      6.87978423413398E-12   6.87979076881990E-12   0.00000000000000E+00   7.63953919810327E-14  -8.00455641495986E-14
      9.96176970036341E-31  -3.65017216856583E-15   2.23604239184471E-29   0.00000000000000E+00   7.34757897660214E-16
      0.00000000000000E+00   4.60863730299134E-12  -4.60498713082278E-12  -2.16663266189925E-27   3.65017216856567E-15
     -3.57476466128185E-28
      2.26728631004697E-12
      1.65259654738987E-11   1.65259909446991E-11   0.00000000000000E+00   6.55035521849393E-14  -6.91249172307735E-14
     -5.04928118913317E-30  -3.62136504583418E-15   5.38960610054862E-29   0.00000000000000E+00   3.67378948830107E-16
      0.00000000000000E+00   2.03399365929558E-12  -2.03037229424975E-12  -1.52678327425836E-27   3.62136504583259E-15
     -5.19860199253008E-28
      2.31728631004697E-12
      5.36610621561422E-12   5.36612061608696E-12   0.00000000000000E+00   6.61991045159087E-14  -6.99289286914932E-14
     -2.07894934508216E-30  -3.72982417558450E-15   2.55418096314856E-29   0.00000000000000E+00   0.00000000000000E+00
      0.00000000000000E+00   1.19973407518877E-12  -1.19600425101318E-12  -2.18244561918459E-27   3.72982417558451E-15
     -2.24511478456250E-29
      2.36728631004697E-12
      2.45785277619987E-11   2.45785701241062E-11   0.00000000000000E+00   6.22629041119879E-14  -6.60581258424978E-14
      1.66093063034298E-31  -3.79522173050986E-15  -5.36541305330118E-29   0.00000000000000E+00   3.67378948830107E-16
      0.00000000000000E+00   4.28788087458391E-12  -4.28408565285339E-12  -3.76041378647774E-27   3.79522173050938E-15
     -3.69863306318875E-28
      2.41728631004697E-12
     -3.90263674507263E-12  -3.90264361223792E-12   0.00000000000000E+00   5.72989089923305E-14  -6.12122809395605E-14
     -4.06814244331468E-31  -3.91337194722994E-15   8.91997652013142E-29   0.00000000000000E+00   1.83689474415054E-16
      0.00000000000000E+00   2.70516358563240E-13  -2.66602986616009E-13  -1.23548687333490E-27   3.91337194723003E-15
      5.88374909057760E-29
      2.46728631004697E-12
      1.01478044588361E-11   1.01478331693224E-11   0.00000000000000E+00   4.36550433935095E-14  -4.74590359925242E-14
      5.23844293080829E-30  -3.80399259901465E-15  -7.49984464670664E-30   0.00000000000000E+00   3.67378948830107E-16
      0.00000000000000E+00   3.67592111391585E-12  -3.67211712131684E-12   2.68818664389412E-27   3.80399259901436E-15
     -3.93862809188336E-28
      2.51728631004697E-12
      8.93877932049662E-12   8.93878904872254E-12   0.00000000000000E+00   4.24254011680517E-14  -4.62143884312498E-14
      2.02317268765975E-30  -3.78898726319810E-15  -2.10177097962142E-29   0.00000000000000E+00   1.83689474415054E-16
      0.00000000000000E+00   1.99264158721409E-12  -1.98885259995089E-12   8.33644622931206E-28   3.78898726319819E-15
     -5.30118051285922E-28
      2.56728631004697E-12
      1.95966394619237E-11   1.95966819661270E-11   0.00000000000000E+00   3.94908766714273E-14  -4.33056932982971E-14
     -1.27438084734704E-30  -3.81481662686981E-15   1.87072737840836E-29   0.00000000000000E+00   5.51068423245161E-16
      0.00000000000000E+00   4.66825510472274E-12  -4.66444028809586E-12  -3.66197108598333E-27   3.81481662686984E-15
     -1.89673490419936E-29
      2.61728631004697E-12
      1.07487888840811E-11   1.07487962460556E-11   0.00000000000000E+00   4.50441582179729E-14  -4.90282447762410E-14
     -9.74976900069473E-31  -3.98408655826815E-15   4.98255808061043E-29   0.00000000000000E+00   1.83689474415054E-16
      0.00000000000000E+00   2.56023860593015E-12  -2.55625451937188E-12  -2.80962049907769E-27   3.98408655826814E-15
     -3.25154555005604E-28
      2.66728631004697E-12
      1.50358158584101E-11   1.50358330446913E-11   0.00000000000000E+00   3.98355927956576E-14  -4.38921706728128E-14
     -8.59261266377499E-30  -4.05657787715526E-15   9.60766388813992E-29   0.00000000000000E+00   7.34757897660214E-16
      0.00000000000000E+00   5.01270083543072E-12  -5.00864425755356E-12   2.41431266155730E-27   4.05657787715622E-15
     -6.44502778671822E-29
      2.71728631004697E-12
      7.78297144350364E-12   7.78299191451872E-12   0.00000000000000E+00   3.90647634539159E-14  -4.31885047638041E-14
      3.42392887376933E-30  -4.12374130988819E-15   3.48863741308096E-29   0.00000000000000E+00   5.51068423245161E-16
      0.00000000000000E+00   4.47856626077627E-12  -4.47444251946638E-12   1.82259421413198E-28   4.12374130988806E-15
     -9.69657333677427E-29
      2.76728631004697E-12
      1.56529329424052E-11   1.56529607951730E-11   0.00000000000000E+00   3.27174223841128E-14  -3.68230615263232E-14
     -1.01409162389518E-29  -4.10563914221042E-15  -7.39702419590502E-30   0.00000000000000E+00   5.51068423245161E-16
      0.00000000000000E+00   3.68930080214810E-12  -3.68519516300589E-12   1.52556410732262E-27   4.10563914221037E-15
      6.54179997570799E-29
      2.81728631004697E-12
      3.88571418229146E-12   3.88572121940744E-12   0.00000000000000E+00   3.29107689634605E-14  -3.70731514062835E-14
     -1.64252847489548E-30  -4.16238244282295E-15   1.11953326137532E-29   0.00000000000000E+00   3.67378948830107E-16
      0.00000000000000E+00   2.49309793204403E-12  -2.48893554960120E-12  -8.98417393002285E-28   4.16238244282280E-15
     -3.21283667446014E-28
      2.86728631004697E-12
      2.53309561612521E-11   2.53310081336789E-11   0.00000000000000E+00   3.10767340308286E-14  -3.52471044513487E-14
     -1.46461479441707E-29  -4.17037042052014E-15   4.62510580752949E-29   0.00000000000000E+00   9.18447372075267E-16
      0.00000000000000E+00   6.66882254302229E-12  -6.66465217260176E-12  -1.09128718804435E-27   4.17037042052178E-15
     -2.02447419366584E-28
      2.91728631004697E-12
      9.28557296870461E-12   9.28557181523386E-12   0.00000000000000E+00   3.50791646483586E-14  -3.93974683357456E-14
     -4.43659119778151E-30  -4.31830368738697E-15   6.82122967141593E-29   0.00000000000000E+00   5.51068423245161E-16
      0.00000000000000E+00   3.60330897798224E-12  -3.59899067429485E-12  -3.72859473655091E-27   4.31830368738672E-15
     -3.66573051893223E-28
      2.96728631004697E-12
      6.60087679291996E-12   6.60088126310495E-12   0.00000000000000E+00   2.85351597987117E-14  -3.28818464375239E-14
      1.25773953773659E-30  -4.34668663881219E-15   6.09967203726101E-29   0.00000000000000E+00   5.51068423245161E-16
      0.00000000000000E+00   3.61627840537929E-12  -3.61193171874047E-12  -2.70712195610399E-27   4.34668663881209E-15
      6.34825559772846E-29
      3.01728631004697E-12