DF-ISE text

Info {
  version   = 1.0
  type      = xyplot
  datasets  = [
    "time"
    "Cathode OuterVoltage" "Cathode InnerVoltage" "Cathode QuasiFermiPotential" "Cathode DisplacementCurrent" "Cathode eCurrent"
    "Cathode hCurrent" "Cathode TotalCurrent" "Cathode Charge" "Anode OuterVoltage" "Anode InnerVoltage"
    "Anode QuasiFermiPotential" "Anode DisplacementCurrent" "Anode eCurrent" "Anode hCurrent" "Anode TotalCurrent"
    "Anode Charge" ]
  functions = [
    Time
    OuterVoltage InnerVoltage QuasiFermiPotential DisplacementCurrent eCurrent
    hCurrent TotalCurrent Charge OuterVoltage InnerVoltage
    QuasiFermiPotential DisplacementCurrent eCurrent hCurrent TotalCurrent
    Charge ]
}

Data {
      1.00000000000000E-15
      4.79772732410566E+00   4.79772732121603E+00   0.00000000000000E+00  -5.64296965373426E-14   4.89629871015249E-06
      2.39997978640992E-05   2.88960965178220E-05   2.39075806304119E-27   0.00000000000000E+00   2.88961061716404E-09
      0.00000000000000E+00  -5.35726339143274E-16  -3.87961759593432E-09  -2.88922169389049E-05  -2.88960965570365E-05
     -9.67721889897631E-32
      2.30000000000000E-15
      4.79772732410495E+00   4.79772732121536E+00   0.00000000000000E+00  -1.76631301952509E-13   4.89629869837516E-06
      2.39997978605959E-05   2.88960963823398E-05  -7.04390777051046E-28   0.00000000000000E+00   2.88960790657112E-09
      0.00000000000000E+00  -4.21050447382057E-16  -3.87961727200909E-09  -2.88922169393141E-05  -2.88960965570072E-05
     -1.20965236237204E-32
      3.99000000000000E-15
      4.79772732409486E+00   4.79772732120523E+00   0.00000000000000E+00  -4.02561858696641E-13   4.89629871449817E-06
      2.39997978562471E-05   2.88960961681834E-05  -4.15591605565443E-27   0.00000000000000E+00   2.88960970358776E-09
      0.00000000000000E+00  -3.69054546148710E-17  -3.87961758033558E-09  -2.88922169393616E-05  -2.88960965569788E-05
      4.83860944948816E-32
      6.18700000000000E-15
      4.79772732410547E+00   4.79772732121584E+00   0.00000000000000E+00  -6.38944184411851E-13   4.89629871019255E-06
      2.39997978503538E-05   2.88960959216022E-05  -4.23584988375998E-27   0.00000000000000E+00   2.88960908444510E-09
      0.00000000000000E+00  -5.94194630702868E-17  -3.87961750305183E-09  -2.88922169394415E-05  -2.88960965570040E-05
      9.67721889897631E-32
      9.04310000000000E-15
      4.79772732410494E+00   4.79772732121534E+00   0.00000000000000E+00  -8.47194484564675E-13   4.89629871134351E-06
      2.39997978426021E-05   2.88960957067511E-05  -2.24127829649197E-27   0.00000000000000E+00   2.88960915557374E-09
      0.00000000000000E+00  -1.02885789082167E-16  -3.87961750591126E-09  -2.88922169394216E-05  -2.88960965570304E-05
     -3.62895708711612E-32
      1.27560300000000E-14
      4.79772732410835E+00   4.79772732121874E+00   0.00000000000000E+00  -9.84653495533977E-13   4.89629871489943E-06
      2.39997978325848E-05   2.88960955628307E-05  -1.71886081654163E-27   0.00000000000000E+00   2.88960949359380E-09
      0.00000000000000E+00  -3.88520381716372E-17  -3.87961753651713E-09  -2.88922169394744E-05  -2.88960965570498E-05
     -2.41930472474408E-32
      1.75828390000000E-14
      4.79772732410274E+00   4.79772732121311E+00   0.00000000000000E+00  -1.05041998452540E-12   4.89629871145806E-06
      2.39997978195887E-05   2.88960954806268E-05   1.38099432727295E-27   0.00000000000000E+00   2.88960910083726E-09
      0.00000000000000E+00  -1.33677201707377E-16  -3.87961749486791E-09  -2.88922169394404E-05  -2.88960965570690E-05
      4.83860944948816E-32
      2.38576907000000E-14
      4.79772732410867E+00   4.79772732121904E+00   0.00000000000000E+00  -1.08661389648947E-12   4.89629871755265E-06
      2.39997978034448E-05   2.88960954343835E-05  -1.87509233335471E-27   0.00000000000000E+00   2.88960978010143E-09
      0.00000000000000E+00   3.55959347675920E-17  -3.87961758045390E-09  -2.88922169395272E-05  -2.88960965570721E-05
      1.57254807108365E-31
      3.20149979100000E-14
      4.79772732411632E+00   4.79772732122672E+00   0.00000000000000E+00  -1.10603689837078E-12   4.89629872456062E-06
      2.39997977837636E-05   2.88960954022873E-05  -2.09051440835682E-27   0.00000000000000E+00   2.88960964533248E-09
      0.00000000000000E+00  -5.28674397803535E-18  -3.87961757390677E-09  -2.88922169395651E-05  -2.88960965571442E-05
     -6.04826181186020E-32
      4.26194972830000E-14
      4.79772732412748E+00   4.79772732123785E+00   0.00000000000000E+00  -1.11326397029388E-12   4.89629871868221E-06
      2.39997977608871E-05   2.88960953663053E-05   1.81086357307638E-27   0.00000000000000E+00   2.88960954688902E-09
      0.00000000000000E+00  -3.33706358379252E-17  -3.87961755418650E-09  -2.88922169396853E-05  -2.88960965572729E-05
     -2.17737425226967E-31
      5.64053464679000E-14
      4.79772732412038E+00   4.79772732123078E+00   0.00000000000000E+00  -1.15330868905885E-12   4.89629872805975E-06
      2.39997977362707E-05   2.88960953110217E-05  -2.37914313226424E-27   0.00000000000000E+00   2.88960954527929E-09
      0.00000000000000E+00  -3.69319989360996E-17  -3.87961755223419E-09  -2.88922169397544E-05  -2.88960965573435E-05
     -1.20965236237204E-32
      7.43269504082700E-14
      4.79772732412903E+00   4.79772732123943E+00   0.00000000000000E+00  -1.20707222973146E-12   4.89629871992871E-06
      2.39997977120030E-05   2.88960952248595E-05   1.33898310072777E-28   0.00000000000000E+00   2.88960956812189E-09
      0.00000000000000E+00  -2.23414703674297E-17  -3.87961756331698E-09  -2.88922169398896E-05  -2.88960965574752E-05
      2.41930472474408E-31
      9.76250355307510E-14
      4.79772732413184E+00   4.79772732124224E+00   0.00000000000000E+00  -1.30739189079938E-12   4.89629872034717E-06
      2.39997976914696E-05   2.88960951044249E-05   8.80384800326188E-28   0.00000000000000E+00   2.88960967944778E-09
      0.00000000000000E+00   9.15779082387713E-18  -3.87961758011866E-09  -2.88922169400266E-05  -2.88960965575975E-05
      1.20965236237204E-32
      1.27912546189976E-13
      4.79772732413365E+00   4.79772732124405E+00   0.00000000000000E+00  -1.44972143963796E-12   4.89629872741298E-06
      2.39997976780001E-05   2.88960949556917E-05  -1.48559712522726E-27   0.00000000000000E+00   2.88960967629557E-09
      0.00000000000000E+00   2.09257732352361E-18  -3.87961757451810E-09  -2.88922169401693E-05  -2.88960965577417E-05
     -8.46756653660427E-32
      1.67286310046969E-13
      4.79772732413455E+00   4.79772732124492E+00   0.00000000000000E+00  -1.60701995058486E-12   4.89629872617743E-06
      2.39997976738033E-05   2.88960947929607E-05  -1.81747734736765E-27   0.00000000000000E+00   2.88960961693771E-09
      0.00000000000000E+00  -1.73998025653665E-17  -3.87961756292258E-09  -2.88922169403549E-05  -2.88960965579352E-05
      1.93544377979526E-31
      2.17286310046969E-13
      4.79772732414369E+00   4.79772732125409E+00   0.00000000000000E+00  -1.75599909521415E-12   4.89629872039823E-06
      2.39997976788621E-05   2.88960946432612E-05   1.29175770547622E-27   0.00000000000000E+00   2.88960966308832E-09
      0.00000000000000E+00   1.95543166384236E-18  -3.87961757587880E-09  -2.88922169405877E-05  -2.88960965581616E-05
     -4.83860944948816E-32
      2.67286310046969E-13
      4.79772732413759E+00   4.79772732124799E+00   0.00000000000000E+00  -1.86463420731230E-12   4.89629872637692E-06
      2.39997976879739E-05   2.88960945497166E-05   1.56832676235534E-27   0.00000000000000E+00   2.88960965285846E-09
      0.00000000000000E+00  -2.95084370991596E-18  -3.87961757037684E-09  -2.88922169407036E-05  -2.88960965582770E-05
     -3.62895708711612E-32
      3.17286310046969E-13
      4.79772732413291E+00   4.79772732124330E+00   0.00000000000000E+00  -1.92519731919056E-12   4.89629872303466E-06
      2.39997976972006E-05   2.88960944950380E-05  -3.33146255643342E-27   0.00000000000000E+00   2.88960961609981E-09
      0.00000000000000E+00  -8.98967678942914E-18  -3.87961756832593E-09  -2.88922169407439E-05  -2.88960965583212E-05
     -1.20965236237204E-32
      3.67286310046969E-13
      4.79772732413683E+00   4.79772732124723E+00   0.00000000000000E+00  -1.95897426895353E-12   4.89629871629492E-06
      2.39997977052509E-05   2.88960944625715E-05  -3.41798974594662E-27   0.00000000000000E+00   2.88960966106865E-09
      0.00000000000000E+00   4.04358493382787E-18  -3.87961757489279E-09  -2.88922169407397E-05  -2.88960965583106E-05
      6.04826181186020E-32
      4.17286310046969E-13
      4.79772732413788E+00   4.79772732124828E+00   0.00000000000000E+00  -1.99712401959437E-12   4.89629872655267E-06
      2.39997977119351E-05   2.88960944413638E-05  -1.02593924495951E-27   0.00000000000000E+00   2.88960969326817E-09
      0.00000000000000E+00   1.05602157954564E-17  -3.87961757658873E-09  -2.88922169406913E-05  -2.88960965582574E-05
     -2.41930472474408E-31
      4.67286310046969E-13
      4.79772732414916E+00   4.79772732125956E+00   0.00000000000000E+00  -2.00759898830220E-12   4.89629871647677E-06
      2.39997977170322E-05   2.88960944259100E-05   4.08453673784904E-28   0.00000000000000E+00   2.88960966770846E-09
      0.00000000000000E+00   8.62690439930454E-19  -3.87961757256579E-09  -2.88922169407840E-05  -2.88960965583557E-05
      7.25791417423224E-32
      5.17286310046969E-13
      4.79772732413866E+00   4.79772732124904E+00   0.00000000000000E+00  -2.03079384974903E-12   4.89629872312361E-06
      2.39997977210313E-05   2.88960944133610E-05   8.33221777774574E-29   0.00000000000000E+00   2.88960965794475E-09
      0.00000000000000E+00   1.48648198880324E-18  -3.87961757116565E-09  -2.88922169407018E-05  -2.88960965582715E-05
     -1.57254807108365E-31
      5.67286310046969E-13
      4.79772732413439E+00   4.79772732124479E+00   0.00000000000000E+00  -2.03884817986727E-12   4.89629871753151E-06
      2.39997977239508E-05   2.88960944026342E-05  -1.97940273565204E-27   0.00000000000000E+00   2.88960962923832E-09
      0.00000000000000E+00  -1.03080447437844E-18  -3.87961757185586E-09  -2.88922169405507E-05  -2.88960965581236E-05
      7.25791417423224E-32
      6.17286310046969E-13
      4.79772732413191E+00   4.79772732124229E+00   0.00000000000000E+00  -2.04867157397001E-12   4.89629871602646E-06
      2.39997977261360E-05   2.88960943934909E-05   4.52808223765817E-28   0.00000000000000E+00   2.88960966397068E-09
      0.00000000000000E+00   4.49041434117646E-18  -3.87961757130370E-09  -2.88922169403053E-05  -2.88960965578721E-05
     -9.67721889897631E-32
      6.67286310046969E-13
      4.79772732413462E+00   4.79772732124500E+00   0.00000000000000E+00  -2.07213257762958E-12   4.89629872975471E-06
      2.39997977278507E-05   2.88960943854729E-05  -1.63744138412855E-27   0.00000000000000E+00   2.88960968963113E-09
      0.00000000000000E+00   1.58867762553347E-17  -3.87961757940873E-09  -2.88922169400566E-05  -2.88960965576202E-05
      1.33061759860924E-31
      7.17286310046969E-13
      4.79772732414499E+00   4.79772732125536E+00   0.00000000000000E+00  -2.06588968065656E-12   4.89629871586337E-06
      2.39997977288859E-05   2.88960943788596E-05  -1.73443168855991E-28   0.00000000000000E+00   2.88960963534622E-09
      0.00000000000000E+00  -4.57889541193856E-18  -3.87961756872034E-09  -2.88922169399895E-05  -2.88960965575628E-05
     -1.69351330732085E-31
      7.67286310046969E-13
      4.79772732414215E+00   4.79772732125253E+00   0.00000000000000E+00  -2.07671072980052E-12   4.89629872017785E-06
      2.39997977297183E-05   2.88960943731854E-05  -1.68292109981465E-27   0.00000000000000E+00   2.88960967679820E-09
      0.00000000000000E+00   9.77273426567371E-18  -3.87961757503083E-09  -2.88922169397791E-05  -2.88960965573443E-05
     -2.17737425226967E-31
      8.17286310046969E-13
      4.79772732413943E+00   4.79772732124981E+00   0.00000000000000E+00  -2.08408740109401E-12   4.89629872245070E-06
      2.39997977302672E-05   2.88960943686305E-05  -2.16669812513083E-27   0.00000000000000E+00   2.88960964751598E-09
      0.00000000000000E+00  -3.76044550738916E-19  -3.87961756852314E-09  -2.88922169395356E-05  -2.88960965571045E-05
     -3.62895708711612E-32
      8.67286310046969E-13
      4.79772732413652E+00   4.79772732124690E+00   0.00000000000000E+00  -2.08248529204193E-12   4.89629871674225E-06
      2.39997977305593E-05   2.88960943648162E-05  -3.89991373505019E-27   0.00000000000000E+00   2.88960962945372E-09
      0.00000000000000E+00  -6.97673242959141E-18  -3.87961756349447E-09  -2.88922169392444E-05  -2.88960965568149E-05
     -1.81447854355806E-31
      9.17286310046969E-13
      4.79772732413228E+00   4.79772732124266E+00   0.00000000000000E+00  -2.09740824841751E-12   4.89629872833813E-06
      2.39997977308508E-05   2.88960943617807E-05  -2.39439325739830E-27   0.00000000000000E+00   2.88960965494690E-09
      0.00000000000000E+00   5.68048474292668E-18  -3.87961757110649E-09  -2.88922169388450E-05  -2.88960965564105E-05
      1.81447854355806E-31
      9.67286310046969E-13
      4.79772732415156E+00   4.79772732126194E+00   0.00000000000000E+00  -2.10397476490684E-12   4.89629873226012E-06
      2.39997977309986E-05   2.88960943592840E-05  -4.30063754123135E-27   0.00000000000000E+00   2.88960966234242E-09
      0.00000000000000E+00   4.57447135840046E-18  -3.87961757280244E-09  -2.88922169386711E-05  -2.88960965562393E-05
      1.20965236237204E-32
      1.01728631004697E-12
      4.79772732416339E+00   4.79772732127377E+00   0.00000000000000E+00  -2.10520650104481E-12   4.89629873147715E-06
      2.39997977310275E-05   2.88960943572981E-05  -2.01838756319312E-27   0.00000000000000E+00   2.88960962616735E-09
      0.00000000000000E+00  -4.86203483837728E-18  -3.87961756972607E-09  -2.88922169386564E-05  -2.88960965562310E-05
      7.25791417423224E-32
      1.06728631004697E-12
      4.79772732416653E+00   4.79772732127690E+00   0.00000000000000E+00  -2.09152887149967E-12   4.89629871632491E-06
      2.39997977308817E-05   2.88960943556777E-05  -3.91876427703594E-27   0.00000000000000E+00   2.88960960469439E-09
      0.00000000000000E+00  -1.05911841702231E-17  -3.87961756625530E-09  -2.88922169386177E-05  -2.88960965561946E-05
      1.20965236237204E-32
      1.11728631004697E-12
      4.79772732417599E+00   4.79772732128637E+00   0.00000000000000E+00  -2.09452711894325E-12   4.89629871805834E-06
      2.39997977308537E-05   2.88960943543850E-05  -1.66694386020590E-27   0.00000000000000E+00   2.88960971334969E-09
      0.00000000000000E+00   2.15274445164184E-17  -3.87961758339222E-09  -2.88922169384925E-05  -2.88960965560544E-05
     -9.67721889897631E-32
      1.16728631004697E-12
      4.79772732418410E+00   4.79772732129449E+00   0.00000000000000E+00  -2.09565171777669E-12   4.89629871820762E-06
      2.39997977307795E-05   2.88960943533354E-05  -5.55913982417597E-27   0.00000000000000E+00   2.88960970529885E-09
      0.00000000000000E+00   1.62495486454593E-17  -3.87961758059194E-09  -2.88922169384551E-05  -2.88960965560194E-05
     -1.81447854355806E-31
      1.21728631004697E-12
      4.79772732418761E+00   4.79772732129801E+00   0.00000000000000E+00  -2.10988123472854E-12   4.89629873158545E-06
      2.39997977307957E-05   2.88960943525000E-05  -3.57949685912509E-27   0.00000000000000E+00   2.88960969091811E-09
      0.00000000000000E+00   1.38517116278064E-17  -3.87961757992145E-09  -2.88922169384140E-05  -2.88960965559800E-05
      2.41930472474408E-32
      1.26728631004697E-12
      4.79772732420024E+00   4.79772732131064E+00   0.00000000000000E+00  -2.10462057054611E-12   4.89629872579058E-06
      2.39997977306560E-05   2.88960943518260E-05  -4.51805478659865E-27   0.00000000000000E+00   2.88960964113127E-09
      0.00000000000000E+00  -1.06885133480614E-17  -3.87961756436216E-09  -2.88922169385286E-05  -2.88960965561036E-05
     -1.20965236237204E-32
      1.31728631004697E-12
      4.79772732419868E+00   4.79772732130906E+00   0.00000000000000E+00  -2.10978778544566E-12   4.89629873048954E-06
      2.39997977305894E-05   2.88960943512912E-05   1.50584349263428E-27   0.00000000000000E+00   2.88960963193918E-09
      0.00000000000000E+00  -6.62280814654302E-18  -3.87961756771461E-09  -2.88922169385563E-05  -2.88960965561307E-05
      1.20965236237204E-32
      1.36728631004697E-12
      4.79772732421191E+00   4.79772732132230E+00   0.00000000000000E+00  -2.10343272986735E-12   4.89629872384766E-06
      2.39997977304476E-05   2.88960943508625E-05   1.98837230791903E-27   0.00000000000000E+00   2.88960964934839E-09
      0.00000000000000E+00  -5.35310478110692E-18  -3.87961756838509E-09  -2.88922169386580E-05  -2.88960965562317E-05
      0.00000000000000E+00
      1.41728631004697E-12
      4.79772732420700E+00   4.79772732131740E+00   0.00000000000000E+00  -2.09339207491941E-12   4.89629871365527E-06
      2.39997977302611E-05   2.88960943505243E-05  -2.14845089726081E-27   0.00000000000000E+00   2.88960963399377E-09
      0.00000000000000E+00  -5.53891502970732E-18  -3.87961756820761E-09  -2.88922169386654E-05  -2.88960965562391E-05
      1.20965236237204E-32
      1.46728631004697E-12
      4.79772732419584E+00   4.79772732130622E+00   0.00000000000000E+00  -2.10688773429441E-12   4.89629872687584E-06
      2.39997977302644E-05   2.88960943502525E-05   2.09564144429146E-28   0.00000000000000E+00   2.88960966578635E-09
      0.00000000000000E+00   7.45895426524485E-18  -3.87961757382789E-09  -2.88922169384288E-05  -2.88960965559952E-05
     -1.08868712613484E-31
      1.51728631004697E-12
      4.79772732420218E+00   4.79772732131259E+00   0.00000000000000E+00  -2.10960817329606E-12   4.89629872945392E-06
      2.39997977301985E-05   2.88960943500442E-05  -2.58874488932153E-28   0.00000000000000E+00   2.88960963894795E-09
      0.00000000000000E+00  -8.18449904549405E-19  -3.87961757096845E-09  -2.88922169382958E-05  -2.88960965558676E-05
     -1.20965236237204E-32
      1.56728631004697E-12
      4.79772732421259E+00   4.79772732132296E+00   0.00000000000000E+00  -2.09499215333091E-12   4.89629871486662E-06
      2.39997977300070E-05   2.88960943498815E-05  -2.48906329739208E-27   0.00000000000000E+00   2.88960964070374E-09
      0.00000000000000E+00  -4.92397158791074E-18  -3.87961756787237E-09  -2.88922169382670E-05  -2.88960965558398E-05
     -9.67721889897631E-32
      1.61728631004697E-12
      4.79772732420819E+00   4.79772732131856E+00   0.00000000000000E+00  -2.10543107042646E-12   4.89629872517649E-06
      2.39997977300122E-05   2.88960943497576E-05  -4.54533282538651E-27   0.00000000000000E+00   2.88960968261979E-09
      0.00000000000000E+00   1.01089623345697E-17  -3.87961757481390E-09  -2.88922169380838E-05  -2.88960965556485E-05
      1.57254807108365E-31
      1.66728631004697E-12
      4.79772732422242E+00   4.79772732133282E+00   0.00000000000000E+00  -2.11274626064793E-12   4.89629873239995E-06
      2.39997977300130E-05   2.88960943496667E-05  -4.06740787138967E-27   0.00000000000000E+00   2.88960967905422E-09
      0.00000000000000E+00   3.64984416893654E-18  -3.87961757175726E-09  -2.88922169380487E-05  -2.88960965556168E-05
      1.57254807108365E-31
      1.71728631004697E-12
      4.79772732422541E+00   4.79772732133581E+00   0.00000000000000E+00  -2.10798864674521E-12   4.89629872768189E-06
      2.39997977299092E-05   2.88960943496025E-05  -1.12065918311324E-27   0.00000000000000E+00   2.88960960674199E-09
      0.00000000000000E+00  -1.05867601166850E-17  -3.87961756735964E-09  -2.88922169380976E-05  -2.88960965556755E-05
      1.20965236237204E-32
      1.76728631004697E-12
      4.79772732422488E+00   4.79772732133527E+00   0.00000000000000E+00  -2.11207854709553E-12   4.89629873175017E-06
      2.39997977298849E-05   2.88960943495566E-05  -7.28413149910483E-28   0.00000000000000E+00   2.88960961923756E-09
      0.00000000000000E+00  -7.25544780249202E-18  -3.87961756757656E-09  -2.88922169380374E-05  -2.88960965556122E-05
     -7.25791417423224E-32
      1.81728631004697E-12
      4.79772732424280E+00   4.79772732135321E+00   0.00000000000000E+00  -2.10988190276063E-12   4.89629872957663E-06
      2.39997977298350E-05   2.88960943495297E-05  -3.33407653958523E-27   0.00000000000000E+00   2.88960965467798E-09
      0.00000000000000E+00  -1.14140581283106E-18  -3.87961757154034E-09  -2.88922169381155E-05  -2.88960965556882E-05
     -1.20965236237204E-32
      1.86728631004697E-12
      4.79772732425627E+00   4.79772732136667E+00   0.00000000000000E+00  -2.10486395985151E-12   4.89629872461780E-06
      2.39997977297632E-05   2.88960943495170E-05   2.39223686305419E-28   0.00000000000000E+00   2.88960966339799E-09
      0.00000000000000E+00   8.27298011625615E-19  -3.87961757365041E-09  -2.88922169383058E-05  -2.88960965558786E-05
     -9.67721889897631E-32
      1.91728631004697E-12
      4.79772732425269E+00   4.79772732136309E+00   0.00000000000000E+00  -2.09688103395737E-12   4.89629871674070E-06
      2.39997977296537E-05   2.88960943495133E-05  -3.62291071538607E-28   0.00000000000000E+00   2.88960963967834E-09
      0.00000000000000E+00  -6.12731415027528E-18  -3.87961756816817E-09  -2.88922169383955E-05  -2.88960965559698E-05
     -6.04826181186020E-32
      1.96728631004697E-12
      4.79772732425303E+00   4.79772732136342E+00   0.00000000000000E+00  -2.09909338368234E-12   4.89629871897145E-06
      2.39997977296389E-05   2.88960943495169E-05  -1.11669719361010E-27   0.00000000000000E+00   2.88960969299769E-09
      0.00000000000000E+00   1.50019655477137E-17  -3.87961758078915E-09  -2.88922169383500E-05  -2.88960965559158E-05
      3.62895708711612E-32
      2.01728631004697E-12
      4.79772732425641E+00   4.79772732136679E+00   0.00000000000000E+00  -2.10517705012040E-12   4.89629872504865E-06
      2.39997977296571E-05   2.88960943495287E-05   2.36746866391008E-27   0.00000000000000E+00   2.88960968991668E-09
      0.00000000000000E+00   7.29526428433497E-18  -3.87961757402509E-09  -2.88922169383292E-05  -2.88960965558960E-05
      4.83860944948816E-32
      2.06728631004697E-12
      4.79772732426451E+00   4.79772732137489E+00   0.00000000000000E+00  -2.10730936871686E-12   4.89629872720451E-06
      2.39997977296519E-05   2.88960943495470E-05  -3.79863181084696E-27   0.00000000000000E+00   2.88960967011331E-09
      0.00000000000000E+00   2.71194481885830E-18  -3.87961757323628E-09  -2.88922169383933E-05  -2.88960965559638E-05
      1.81447854355806E-31
      2.11728631004697E-12
      4.79772732426901E+00   4.79772732137939E+00   0.00000000000000E+00  -2.10687440904515E-12   4.89629872681833E-06
      2.39997977296263E-05   2.88960943495702E-05  -7.96947327557942E-29   0.00000000000000E+00   2.88960964768712E-09
      0.00000000000000E+00  -5.40619342356418E-18  -3.87961756816817E-09  -2.88922169384853E-05  -2.88960965560589E-05
      1.33061759860924E-31
      2.16728631004697E-12
      4.79772732427180E+00   4.79772732138220E+00   0.00000000000000E+00  -2.11179527494748E-12   4.89629873174593E-06
      2.39997977296467E-05   2.88960943495974E-05  -4.94096890933481E-27   0.00000000000000E+00   2.88960964413755E-09
      0.00000000000000E+00  -3.83565441753694E-18  -3.87961756976551E-09  -2.88922169385507E-05  -2.88960965561243E-05
     -8.46756653660427E-32
      2.21728631004697E-12
      4.79772732427895E+00   4.79772732138935E+00   0.00000000000000E+00  -2.11255083693099E-12   4.89629873253940E-06
      2.39997977296395E-05   2.88960943496280E-05  -6.49660037014705E-27   0.00000000000000E+00   2.88960962855828E-09
      0.00000000000000E+00  -7.92790394028397E-18  -3.87961756862174E-09  -2.88922169386701E-05  -2.88960965562466E-05
     -8.46756653660427E-32
      2.26728631004697E-12
      4.79772732428090E+00   4.79772732139130E+00   0.00000000000000E+00  -2.09845850987935E-12   4.89629871860872E-06
      2.39997977295105E-05   2.88960943496607E-05  -3.19634287549101E-27   0.00000000000000E+00   2.88960960809564E-09
      0.00000000000000E+00  -1.67760110164938E-17  -3.87961756205489E-09  -2.88922169387796E-05  -2.88960965563585E-05
     -6.04826181186020E-32
      2.31728631004697E-12
      4.79772732428021E+00   4.79772732139060E+00   0.00000000000000E+00  -2.11136692481176E-12   4.89629873145554E-06
      2.39997977296051E-05   2.88960943496937E-05  -3.60402293878854E-27   0.00000000000000E+00   2.88960968031892E-09
      0.00000000000000E+00   8.95870841466241E-18  -3.87961757623376E-09  -2.88922169387306E-05  -2.88960965562979E-05
      8.46756653660427E-32
      2.36728631004697E-12
      4.79772732428066E+00   4.79772732139105E+00   0.00000000000000E+00  -2.11215186251076E-12   4.89629873228819E-06
      2.39997977295929E-05   2.88960943497292E-05   7.49940425764347E-28   0.00000000000000E+00   2.88960960593887E-09
      0.00000000000000E+00  -1.43073891422312E-17  -3.87961756388887E-09  -2.88922169387569E-05  -2.88960965563351E-05
      1.33061759860924E-31
      2.41728631004697E-12
      4.79772732428000E+00   4.79772732139039E+00   0.00000000000000E+00  -2.10361141296570E-12   4.89629872386538E-06
      2.39997977295117E-05   2.88960943497657E-05  -8.16780145063577E-28   0.00000000000000E+00   2.88960959428026E-09
      0.00000000000000E+00  -1.72538087986091E-17  -3.87961756150272E-09  -2.88922169387317E-05  -2.88960965563105E-05
      3.62895708711612E-32
      2.46728631004697E-12
      4.79772732428595E+00   4.79772732139632E+00   0.00000000000000E+00  -2.09729686402158E-12   4.89629871763801E-06
      2.39997977294617E-05   2.88960943498029E-05  -1.52211558500636E-27   0.00000000000000E+00   2.88960966419096E-09
      0.00000000000000E+00   4.99918049805853E-18  -3.87961757410397E-09  -2.88922169386587E-05  -2.88960965562278E-05
      8.46756653660427E-32
      2.51728631004697E-12
      4.79772732427746E+00   4.79772732138785E+00   0.00000000000000E+00  -2.10400208786149E-12   4.89629872434463E-06
      2.39997977294973E-05   2.88960943498398E-05  -4.10133578503148E-28   0.00000000000000E+00   2.88960965616663E-09
      0.00000000000000E+00   3.56578715171254E-18  -3.87961757179670E-09  -2.88922169384737E-05  -2.88960965560420E-05
      8.46756653660427E-32
      2.56728631004697E-12
      4.79772732427961E+00   4.79772732139001E+00   0.00000000000000E+00  -2.09628211443749E-12   4.89629871673293E-06
      2.39997977294270E-05   2.88960943498778E-05  -4.83111149492327E-28   0.00000000000000E+00   2.88960964510303E-09
      0.00000000000000E+00   4.68064864331498E-18  -3.87961757489278E-09  -2.88922169382967E-05  -2.88960965558669E-05
      8.46756653660427E-32
      2.61728631004697E-12
      4.79772732428496E+00   4.79772732139537E+00   0.00000000000000E+00  -2.10839744698834E-12   4.89629872878763E-06
      2.39997977295266E-05   2.88960943499168E-05  -4.80875844232390E-27   0.00000000000000E+00   2.88960970205405E-09
      0.00000000000000E+00   1.62141562171544E-17  -3.87961757867908E-09  -2.88922169381019E-05  -2.88960965556644E-05
      6.04826181186020E-32
      2.66728631004697E-12
      4.79772732429265E+00   4.79772732140302E+00   0.00000000000000E+00  -2.09873683593554E-12   4.89629871925040E-06
      2.39997977294450E-05   2.88960943499586E-05  -2.88858160939086E-27   0.00000000000000E+00   2.88960964129501E-09
      0.00000000000000E+00  -3.89316711353230E-18  -3.87961756872034E-09  -2.88922169380612E-05  -2.88960965556338E-05
     -4.83860944948816E-32
      2.71728631004697E-12
      4.79772732429827E+00   4.79772732140864E+00   0.00000000000000E+00  -2.10640554342713E-12   4.89629872689252E-06
      2.39997977295124E-05   2.88960943499994E-05  -2.95314151200339E-27   0.00000000000000E+00   2.88960969264586E-09
      0.00000000000000E+00   1.23961980137699E-17  -3.87961757737754E-09  -2.88922169379662E-05  -2.88960965555311E-05
      0.00000000000000E+00
      2.76728631004697E-12
      4.79772732430870E+00   4.79772732141908E+00   0.00000000000000E+00  -2.09772213944009E-12   4.89629871831794E-06
      2.39997977294466E-05   2.88960943500424E-05  -4.88911810586264E-28   0.00000000000000E+00   2.88960966523928E-09
      0.00000000000000E+00  -1.40684902511736E-18  -3.87961756909503E-09  -2.88922169379986E-05  -2.88960965555691E-05
      7.25791417423224E-32
      2.81728631004697E-12
      4.79772732429702E+00   4.79772732140741E+00   0.00000000000000E+00  -2.10781279504112E-12   4.89629872838240E-06
      2.39997977295130E-05   2.88960943500827E-05  -3.63377736277199E-27   0.00000000000000E+00   2.88960964581726E-09
      0.00000000000000E+00   4.40635732395247E-18  -3.87961757416313E-09  -2.88922169378440E-05  -2.88960965554138E-05
     -7.25791417423224E-32
      2.86728631004697E-12
      4.79772732430822E+00   4.79772732141861E+00   0.00000000000000E+00  -2.10650317786467E-12   4.89629872711684E-06
      2.39997977295104E-05   2.88960943501240E-05  -2.08293347920020E-27   0.00000000000000E+00   2.88960965172008E-09
      0.00000000000000E+00   2.01736841337583E-18  -3.87961757311796E-09  -2.88922169377726E-05  -2.88960965553437E-05
      3.62895708711612E-32
      2.91728631004697E-12
      4.79772732430646E+00   4.79772732141684E+00   0.00000000000000E+00  -2.10146571160729E-12   4.89629872216705E-06
      2.39997977294641E-05   2.88960943501654E-05  -2.05958832265551E-27   0.00000000000000E+00   2.88960962241547E-09
      0.00000000000000E+00  -7.66246072799767E-18  -3.87961756633419E-09  -2.88922169376913E-05  -2.88960965552653E-05
      3.62895708711612E-32
      2.96728631004697E-12
      4.79772732430990E+00   4.79772732142030E+00   0.00000000000000E+00  -2.10559606992721E-12   4.89629872630016E-06
      2.39997977295027E-05   2.88960943502068E-05   1.38046378130714E-27   0.00000000000000E+00   2.88960966425549E-09
      0.00000000000000E+00   6.47681437978556E-18  -3.87961757434062E-09  -2.88922169375441E-05  -2.88960965551120E-05
      1.20965236237204E-32
      3.01728631004697E-12