DF-ISE text

Info {
  version   = 1.0
  type      = xyplot
  datasets  = [
    "time"
    "ntype OuterVoltage" "ntype InnerVoltage" "ntype QuasiFermiPotential" "ntype DisplacementCurrent" "ntype eCurrent"
    "ntype hCurrent" "ntype TotalCurrent" "ntype Charge" "ptype OuterVoltage" "ptype InnerVoltage"
    "ptype QuasiFermiPotential" "ptype DisplacementCurrent" "ptype eCurrent" "ptype hCurrent" "ptype TotalCurrent"
    "ptype Charge" ]
  functions = [
    Time
    OuterVoltage InnerVoltage QuasiFermiPotential DisplacementCurrent eCurrent
    hCurrent TotalCurrent Charge OuterVoltage InnerVoltage
    QuasiFermiPotential DisplacementCurrent eCurrent hCurrent TotalCurrent
    Charge ]
}

Data {
      0.00000000000000E+00
      0.00000000000000E+00   0.00000000000000E+00   0.00000000000000E+00   0.00000000000000E+00  -9.85061465389875E-26
      3.39366968221014E-17   3.39366967235953E-17   1.70863396185051E-30   0.00000000000000E+00   0.00000000000000E+00
      0.00000000000000E+00   0.00000000000000E+00   3.58599223803616E-33  -3.39366967235954E-17  -3.39366967235954E-17
      9.63851002338041E-29
      0.00000000000000E+00
      0.00000000000000E+00   0.00000000000000E+00   0.00000000000000E+00   0.00000000000000E+00  -1.20601147177923E-25
      3.39366968441964E-17   3.39366967235953E-17  -1.58328373579970E-29   0.00000000000000E+00   0.00000000000000E+00
      0.00000000000000E+00   0.00000000000000E+00  -2.45684789533988E-34  -3.39366967235954E-17  -3.39366967235954E-17
      8.86433251146230E-29
      0.00000000000000E+00
      0.00000000000000E+00   0.00000000000000E+00   0.00000000000000E+00   0.00000000000000E+00  -1.10292624949263E-27
     -1.85954501492136E-19  -1.85954502595062E-19  -3.26349086713447E-29   0.00000000000000E+00   0.00000000000000E+00
      0.00000000000000E+00   0.00000000000000E+00   3.47420732961266E-16  -3.47234778458669E-16   1.85954502597225E-19
      8.86433251146230E-29
      1.00000000000000E-02
      1.50000000000000E-01   1.50000000000000E-01   0.00000000000000E+00   0.00000000000000E+00   7.05441782999643E-14
      5.80217850383719E-18   7.05499804784682E-14   2.87262194754300E-29   0.00000000000000E+00   0.00000000000000E+00
      0.00000000000000E+00   0.00000000000000E+00  -7.02595125857299E-14  -2.90467892738336E-16  -7.05499804784682E-14
      1.60641833723007E-28
      2.00000000000000E-02
      3.00000000000000E-01   3.00000000000000E-01   0.00000000000000E+00   0.00000000000000E+00   1.31465819331392E-13
      1.19889328366951E-18   1.31467018224676E-13   9.30388993863924E-29   0.00000000000000E+00   0.00000000000000E+00
      0.00000000000000E+00   0.00000000000000E+00  -1.30982821826538E-13  -4.84196398137460E-16  -1.31467018224676E-13
      1.54448413627662E-28
      3.00000000000000E-02
      4.50000000000000E-01   4.50000000000000E-01   0.00000000000000E+00   0.00000000000000E+00   1.90292236344400E-13
     -2.50603645677445E-18   1.90289730307943E-13  -3.76519418442827E-29   0.00000000000000E+00   0.00000000000000E+00
      0.00000000000000E+00   0.00000000000000E+00  -1.90374007312311E-13   8.42770043677851E-17  -1.90289730307943E-13
     -7.81919287037286E-29
      4.00000000000000E-02
      6.00000000000000E-01   6.00000000000000E-01   0.00000000000000E+00   0.00000000000000E+00   2.49852292265680E-13
     -1.01333251978224E-17   2.49842158940483E-13  -7.69641315559210E-30   0.00000000000000E+00   0.00000000000000E+00
      0.00000000000000E+00   0.00000000000000E+00  -2.50102916125901E-13   2.60757185418764E-16  -2.49842158940482E-13
      6.46438222451618E-29
      5.00000000000000E-02
      7.50000000000000E-01   7.50000000000000E-01   0.00000000000000E+00   0.00000000000000E+00   3.12643121906751E-13
      4.66764426923378E-18   3.12647789551020E-13  -3.21767528390962E-30   0.00000000000000E+00   0.00000000000000E+00
      0.00000000000000E+00   0.00000000000000E+00  -3.12565110332055E-13  -8.26792189659047E-17  -3.12647789551021E-13
      1.46706638508481E-28
      6.00000000000000E-02
      9.00000000000000E-01   9.00000000000000E-01   0.00000000000000E+00   0.00000000000000E+00   3.83984926121611E-13
      2.41535372523264E-18   3.83987341475336E-13   3.46973659491890E-29   0.00000000000000E+00   0.00000000000000E+00
      0.00000000000000E+00   0.00000000000000E+00  -3.84197085094126E-13   2.09743618789239E-16  -3.83987341475336E-13
      1.62190188746843E-28
      7.00000000000000E-02
      1.05000000000000E+00   1.05000000000000E+00   0.00000000000000E+00   0.00000000000000E+00   4.66188986861391E-13
      3.58759375220663E-18   4.66192574455143E-13  -2.85553560792450E-29   0.00000000000000E+00   0.00000000000000E+00
      0.00000000000000E+00   0.00000000000000E+00  -4.66724472875116E-13   5.31898419972995E-16  -4.66192574455143E-13
      2.38059584914817E-28
      8.00000000000000E-02
      1.20000000000000E+00   1.20000000000000E+00   0.00000000000000E+00   0.00000000000000E+00   5.48695220569486E-13
      8.89380733061553E-18   5.48704114376816E-13  -4.02904960597067E-29   0.00000000000000E+00   0.00000000000000E+00
      0.00000000000000E+00   0.00000000000000E+00  -5.49159539076694E-13   4.55424699878835E-16  -5.48704114376815E-13
      1.93157289223567E-28
      9.00000000000000E-02
      1.35000000000000E+00   1.35000000000000E+00   0.00000000000000E+00   0.00000000000000E+00   6.34728032248794E-13
     -3.82360379856278E-18   6.34724208644995E-13  -9.27954568484651E-30   0.00000000000000E+00   0.00000000000000E+00
      0.00000000000000E+00   0.00000000000000E+00  -6.34796217711856E-13   7.20090668614226E-17  -6.34724208644995E-13
      1.21545869371143E-28
      1.00000000000000E-01
      1.50000000000000E+00   1.50000000000000E+00   0.00000000000000E+00   0.00000000000000E+00   7.30737748183417E-13
      1.70691197797267E-18   7.30739455095395E-13  -1.30385404009176E-29   0.00000000000000E+00   0.00000000000000E+00
      0.00000000000000E+00   0.00000000000000E+00  -7.30035175067085E-13  -7.04280028310701E-16  -7.30739455095396E-13
      2.24124389700291E-28
      1.10000000000000E-01
      1.65000000000000E+00   1.65000000000000E+00   0.00000000000000E+00   0.00000000000000E+00   8.24236647414389E-13
      2.44652802573353E-18   8.24239093942415E-13  -4.90393067705625E-29   0.00000000000000E+00   0.00000000000000E+00
      0.00000000000000E+00   0.00000000000000E+00  -8.24531638204801E-13   2.92544262384458E-16  -8.24239093942417E-13
      1.80383360276918E-28
      1.20000000000000E-01
      1.80000000000000E+00   1.80000000000000E+00   0.00000000000000E+00   0.00000000000000E+00   9.32925186379368E-13
      6.14643711820872E-20   9.32925247843739E-13   1.34271412223296E-29   0.00000000000000E+00   0.00000000000000E+00
      0.00000000000000E+00   0.00000000000000E+00  -9.32694738489959E-13  -2.30509353781722E-16  -9.32925247843741E-13
      2.39220851182694E-28
      1.30000000000000E-01
      1.95000000000000E+00   1.95000000000000E+00   0.00000000000000E+00   0.00000000000000E+00   1.04391851803744E-12
     -3.80464398968895E-18   1.04391471339345E-12   6.91240721822972E-29   0.00000000000000E+00   0.00000000000000E+00
      0.00000000000000E+00   0.00000000000000E+00  -1.04395735482093E-12   4.26414274870756E-17  -1.04391471339344E-12
      9.05787688944183E-29
      1.40000000000000E-01
      2.10000000000000E+00   2.10000000000000E+00   0.00000000000000E+00   0.00000000000000E+00   1.16541924492972E-12
      4.11301065707475E-19   1.16541965623079E-12   1.41831739488122E-30   0.00000000000000E+00   0.00000000000000E+00
      0.00000000000000E+00   0.00000000000000E+00  -1.16543122760294E-12   1.15713721533989E-17  -1.16541965623079E-12
      6.69663547809161E-29
      1.50000000000000E-01
      2.25000000000000E+00   2.25000000000000E+00   0.00000000000000E+00   0.00000000000000E+00   1.29764652647481E-12
     -2.20369808727632E-18   1.29764432277672E-12   1.43615976722620E-29   0.00000000000000E+00   0.00000000000000E+00
      0.00000000000000E+00   0.00000000000000E+00  -1.29761225760905E-12  -3.20651676673390E-17  -1.29764432277672E-12
     -5.49666033461855E-29
      1.60000000000000E-01
      2.40000000000000E+00   2.40000000000000E+00   0.00000000000000E+00   0.00000000000000E+00   1.43506857521507E-12
     -2.39706405995749E-18   1.43506617815101E-12   9.27667276048587E-29   0.00000000000000E+00   0.00000000000000E+00
      0.00000000000000E+00   0.00000000000000E+00  -1.43511077218965E-12   4.45940386371371E-17  -1.43506617815102E-12
      6.73534435368751E-29
      1.70000000000000E-01
      2.55000000000000E+00   2.55000000000000E+00   0.00000000000000E+00   0.00000000000000E+00   1.58978969159207E-12
     -3.16321405361512E-18   1.58978652837802E-12   3.42482825096584E-29   0.00000000000000E+00   0.00000000000000E+00
      0.00000000000000E+00   0.00000000000000E+00  -1.59004793345370E-12   2.61405075679246E-16  -1.58978652837802E-12
      1.37029419609505E-28
      1.80000000000000E-01
      2.70000000000000E+00   2.70000000000000E+00   0.00000000000000E+00   0.00000000000000E+00   1.74733223101967E-12
     -2.09914283999542E-18   1.74733013187683E-12   8.48359443040570E-29   0.00000000000000E+00   0.00000000000000E+00
      0.00000000000000E+00   0.00000000000000E+00  -1.74704631575552E-12  -2.83816121300763E-16  -1.74733013187683E-12
      1.53287147359785E-28
      1.90000000000000E-01
      2.85000000000000E+00   2.85000000000000E+00   0.00000000000000E+00   0.00000000000000E+00   1.92568108917829E-12
     -4.21093071962986E-18   1.92567687824757E-12  -1.03122863892216E-29   0.00000000000000E+00   0.00000000000000E+00
      0.00000000000000E+00   0.00000000000000E+00  -1.92563196805248E-12  -4.49101950833020E-17  -1.92567687824757E-12
      3.79346980839871E-29
      2.00000000000000E-01
      3.00000000000000E+00   3.00000000000000E+00   0.00000000000000E+00   0.00000000000000E+00   2.10811086331931E-12
     -3.74625748897207E-18   2.10810711706182E-12  -4.23726101884396E-29   0.00000000000000E+00   0.00000000000000E+00
      0.00000000000000E+00   0.00000000000000E+00  -2.10771296753322E-12  -3.94149528599140E-16  -2.10810711706182E-12
      6.77405322928342E-29
      2.10000000000000E-01
      3.15000000000000E+00   3.15000000000000E+00   0.00000000000000E+00   0.00000000000000E+00   2.31074565949005E-12
      4.71604306317507E-19   2.31074613109436E-12   9.81995787773621E-29   0.00000000000000E+00   0.00000000000000E+00
      0.00000000000000E+00   0.00000000000000E+00  -2.31120829118255E-12   4.62160088191795E-16  -2.31074613109436E-12
      1.60641833723007E-28
      2.20000000000000E-01
      3.30000000000000E+00   3.30000000000000E+00   0.00000000000000E+00   0.00000000000000E+00   2.52352269076442E-12
     -5.36549821679176E-18   2.52351732526620E-12  -7.27953671020963E-29   0.00000000000000E+00   0.00000000000000E+00
      0.00000000000000E+00   0.00000000000000E+00  -2.52317506288467E-12  -3.42262381532549E-16  -2.52351732526620E-12
      1.24642579418815E-28
      2.30000000000000E-01
      3.45000000000000E+00   3.45000000000000E+00   0.00000000000000E+00   0.00000000000000E+00   2.74959389911695E-12
     -6.97352012950629E-19   2.74959320176493E-12   6.82863879213546E-29   0.00000000000000E+00   0.00000000000000E+00
      0.00000000000000E+00   0.00000000000000E+00  -2.74968911461101E-12   9.59128460815244E-17  -2.74959320176493E-12
      1.79609182765000E-28
      2.40000000000000E-01
      3.60000000000000E+00   3.60000000000000E+00   0.00000000000000E+00   0.00000000000000E+00   2.99809583777044E-12
     -1.13830541111087E-18   2.99809469946503E-12  -1.56982635326831E-29   0.00000000000000E+00   0.00000000000000E+00
      0.00000000000000E+00   0.00000000000000E+00  -2.99824494150479E-12   1.50242039775061E-16  -2.99809469946502E-12
      2.97671253332511E-28
      2.50000000000000E-01
      3.75000000000000E+00   3.75000000000000E+00   0.00000000000000E+00   0.00000000000000E+00   3.24674004948864E-12
      7.02031284319318E-18   3.24674706980148E-12   1.58641371128734E-28   0.00000000000000E+00   0.00000000000000E+00
      0.00000000000000E+00   0.00000000000000E+00  -3.24670384366951E-12  -4.32261319722514E-17  -3.24674706980148E-12
      1.26578023198610E-28
      2.60000000000000E-01
      3.90000000000000E+00   3.90000000000000E+00   0.00000000000000E+00   0.00000000000000E+00   3.53387766763674E-12
      5.27040281293481E-18   3.53388293803955E-12  -9.57379362199350E-29   0.00000000000000E+00   0.00000000000000E+00
      0.00000000000000E+00   0.00000000000000E+00  -3.53399481482821E-12   1.11876788660797E-16  -3.53388293803955E-12
      3.44508992803557E-29
      2.70000000000000E-01
      4.05000000000000E+00   4.05000000000000E+00   0.00000000000000E+00   0.00000000000000E+00   3.81007310559960E-12
     -6.80732185050824E-19   3.81007242486741E-12  -7.65362170327319E-29   0.00000000000000E+00   0.00000000000000E+00
      0.00000000000000E+00   0.00000000000000E+00  -3.80990262536246E-12  -1.69799504950666E-16  -3.81007242486741E-12
      1.53480691737764E-28
      2.80000000000000E-01
      4.20000000000000E+00   4.20000000000000E+00   0.00000000000000E+00   0.00000000000000E+00   4.13220589706240E-12
     -2.37632687530051E-19   4.13220565942971E-12   2.63855421542401E-30   0.00000000000000E+00   0.00000000000000E+00
      0.00000000000000E+00   0.00000000000000E+00  -4.13194941686957E-12  -2.56242560143421E-16  -4.13220565942971E-12
      1.19029792457409E-28
      2.90000000000000E-01
      4.35000000000000E+00   4.35000000000000E+00   0.00000000000000E+00   0.00000000000000E+00   4.45104320694149E-12
      1.54374617375006E-18   4.45104475068767E-12   4.79763247571280E-29   0.00000000000000E+00   0.00000000000000E+00
      0.00000000000000E+00   0.00000000000000E+00  -4.45069505077237E-12  -3.49699915297782E-16  -4.45104475068767E-12
     -1.37416508365464E-29
      3.00000000000000E-01
      4.50000000000000E+00   4.50000000000000E+00   0.00000000000000E+00   0.00000000000000E+00   4.79879981423282E-12
     -2.89861777959497E-18   4.79879691561504E-12  -2.75876341893473E-29   0.00000000000000E+00   0.00000000000000E+00
      0.00000000000000E+00   0.00000000000000E+00  -4.79921810204806E-12   4.21186433017772E-16  -4.79879691561505E-12
      2.45607815656019E-28
      3.10000000000000E-01
      4.65000000000000E+00   4.65000000000000E+00   0.00000000000000E+00   0.00000000000000E+00   5.17705838456093E-12
      2.45910294411144E-18   5.17706084366387E-12   4.46528048915109E-29   0.00000000000000E+00   0.00000000000000E+00
      0.00000000000000E+00   0.00000000000000E+00  -5.17712431845213E-12   6.34747882482020E-17  -5.17706084366388E-12
      2.50446425105507E-28
      3.20000000000000E-01
      4.80000000000000E+00   4.80000000000000E+00   0.00000000000000E+00   0.00000000000000E+00   5.55122475594699E-12
     -3.82205873978940E-18   5.55122093388825E-12  -3.31928608234888E-29   0.00000000000000E+00   0.00000000000000E+00
      0.00000000000000E+00   0.00000000000000E+00  -5.55109927390156E-12  -1.21659986694436E-16  -5.55122093388825E-12
      1.26965111954569E-28
      3.30000000000000E-01
      4.95000000000000E+00   4.95000000000000E+00   0.00000000000000E+00   0.00000000000000E+00   5.98650749147395E-12
     -2.84990187088626E-18   5.98650464157208E-12  -1.79482169266951E-29   0.00000000000000E+00   0.00000000000000E+00
      0.00000000000000E+00   0.00000000000000E+00  -5.98685904543770E-12   3.54403865621720E-16  -5.98650464157208E-12
      6.23212897094075E-29
      3.40000000000000E-01
      5.10000000000000E+00   5.10000000000000E+00   0.00000000000000E+00   0.00000000000000E+00   6.41421070524478E-12
     -9.37873636646023E-18   6.41420132650841E-12   1.63923015755941E-29   0.00000000000000E+00   0.00000000000000E+00
      0.00000000000000E+00   0.00000000000000E+00  -6.41440631284356E-12   2.04986335154914E-16  -6.41420132650841E-12
      1.75351206449451E-28
      3.50000000000000E-01
      5.25000000000000E+00   5.25000000000000E+00   0.00000000000000E+00   0.00000000000000E+00   6.88454049126276E-12
     -6.29229051216482E-18   6.88453419897225E-12  -1.96492905612808E-29   0.00000000000000E+00   0.00000000000000E+00
      0.00000000000000E+00   0.00000000000000E+00  -6.88460949251080E-12   7.52935385392543E-17  -6.88453419897226E-12
      7.16114198524247E-29
      3.60000000000000E-01
      5.40000000000000E+00   5.40000000000000E+00   0.00000000000000E+00   0.00000000000000E+00   7.39740304297952E-12
      3.82267351196432E-18   7.39740686565303E-12  -7.33775123014879E-29   0.00000000000000E+00   0.00000000000000E+00
      0.00000000000000E+00   0.00000000000000E+00  -7.39718657497553E-12  -2.20290677497770E-16  -7.39740686565303E-12
      1.62964366258761E-28
      3.70000000000000E-01
      5.55000000000000E+00   5.55000000000000E+00   0.00000000000000E+00   0.00000000000000E+00   7.90588784533424E-12
     -2.20009675116886E-19   7.90588762532457E-12  -2.09269858690363E-29   0.00000000000000E+00   0.00000000000000E+00
      0.00000000000000E+00   0.00000000000000E+00  -7.90558123428082E-12  -3.06391043752437E-16  -7.90588762532457E-12
      1.18836248079429E-28
      3.80000000000000E-01
      5.70000000000000E+00   5.70000000000000E+00   0.00000000000000E+00   0.00000000000000E+00   8.49494495754475E-12
     -2.81072780499108E-18   8.49494214681694E-12  -1.18828687752164E-28   0.00000000000000E+00   0.00000000000000E+00
      0.00000000000000E+00   0.00000000000000E+00  -8.49500564489421E-12   6.34980772777506E-17  -8.49494214681694E-12
      5.38053370783083E-29
      3.90000000000000E-01
      5.85000000000000E+00   5.85000000000000E+00   0.00000000000000E+00   0.00000000000000E+00   9.09252441567124E-12
     -4.98727407061872E-18   9.09251942839717E-12  -4.49264887384975E-29   0.00000000000000E+00   0.00000000000000E+00
      0.00000000000000E+00   0.00000000000000E+00  -9.09277218313028E-12   2.52754733110791E-16  -9.09251942839717E-12
      1.04901052864903E-28
      4.00000000000000E-01
      6.00000000000000E+00   6.00000000000000E+00   0.00000000000000E+00   0.00000000000000E+00   9.73301097551702E-12
     -8.16701039406688E-18   9.73300280850663E-12   9.76144094470647E-29   0.00000000000000E+00   0.00000000000000E+00
      0.00000000000000E+00   0.00000000000000E+00  -9.73261189506822E-12  -3.90913438411609E-16  -9.73300280850663E-12
      3.03864673427856E-29
      4.10000000000000E-01
      6.15000000000000E+00   6.15000000000000E+00   0.00000000000000E+00   0.00000000000000E+00   1.04567398569859E-11
      1.23891187649578E-18   1.04567410958978E-11   3.44191459058434E-29   0.00000000000000E+00   0.00000000000000E+00
      0.00000000000000E+00   0.00000000000000E+00  -1.04563763431778E-11  -3.64752719987389E-16  -1.04567410958978E-11
      1.10900928582269E-28
      4.20000000000000E-01
      6.30000000000000E+00   6.30000000000000E+00   0.00000000000000E+00   0.00000000000000E+00   1.11838444125859E-11
      1.08222792596018E-18   1.11838454948139E-11  -9.23992956997882E-29   0.00000000000000E+00   0.00000000000000E+00
      0.00000000000000E+00   0.00000000000000E+00  -1.11834960136834E-11  -3.49481130449825E-16  -1.11838454948138E-11
      4.10314081316596E-29
      4.30000000000000E-01
      6.45000000000000E+00   6.45000000000000E+00   0.00000000000000E+00   0.00000000000000E+00   1.20179765914862E-11
      8.93279165440026E-18   1.20179855242778E-11  -1.06565836928618E-28   0.00000000000000E+00   0.00000000000000E+00
      0.00000000000000E+00   0.00000000000000E+00  -1.20184640528665E-11   4.78528588657166E-16  -1.20179855242779E-11
      7.50952186560562E-29
      4.40000000000000E-01
      6.60000000000000E+00   6.60000000000000E+00   0.00000000000000E+00   0.00000000000000E+00   1.29038730050965E-11
     -7.54707282467974E-19   1.29038722503892E-11   2.92282252058144E-30   0.00000000000000E+00   0.00000000000000E+00
      0.00000000000000E+00   0.00000000000000E+00  -1.29035739231395E-11  -2.98327249730334E-16  -1.29038722503892E-11
      1.33158532049914E-28
      4.50000000000000E-01
      6.75000000000000E+00   6.75000000000000E+00   0.00000000000000E+00   0.00000000000000E+00   1.38465698391558E-11
     -1.37200641461953E-18   1.38465684671494E-11  -3.93658680352186E-29   0.00000000000000E+00   0.00000000000000E+00
      0.00000000000000E+00   0.00000000000000E+00  -1.38464208335828E-11  -1.47633566599364E-16  -1.38465684671494E-11
      1.11868650472166E-28
      4.60000000000000E-01
      6.90000000000000E+00   6.90000000000000E+00   0.00000000000000E+00   0.00000000000000E+00   1.49149427103766E-11
      7.12960196080527E-18   1.49149498399786E-11  -4.61406772972285E-30   0.00000000000000E+00   0.00000000000000E+00
      0.00000000000000E+00   0.00000000000000E+00  -1.49150975826686E-11   1.47742690016280E-16  -1.49149498399786E-11
      1.15739538031757E-28
      4.70000000000000E-01
      7.05000000000000E+00   7.05000000000000E+00   0.00000000000000E+00   0.00000000000000E+00   1.60102789695151E-11
     -1.42233391228162E-18   1.60102775471812E-11   4.75177909085164E-29   0.00000000000000E+00   0.00000000000000E+00
      0.00000000000000E+00   0.00000000000000E+00  -1.60103707615691E-11   9.32143878680898E-17  -1.60102775471813E-11
      2.72897572951132E-28
      4.80000000000000E-01
      7.20000000000000E+00   7.20000000000000E+00   0.00000000000000E+00   0.00000000000000E+00   1.72322521165880E-11
      9.01968518346119E-18   1.72322611362732E-11  -2.09706467589906E-29   0.00000000000000E+00   0.00000000000000E+00
      0.00000000000000E+00   0.00000000000000E+00  -1.72324445540832E-11   1.83417809974367E-16  -1.72322611362732E-11
      7.45145855221176E-29
      4.90000000000000E-01
      7.35000000000000E+00   7.35000000000000E+00   0.00000000000000E+00   0.00000000000000E+00   1.85213525024379E-11
      1.50861096990622E-18   1.85213540110488E-11   1.34104754259152E-28   0.00000000000000E+00   0.00000000000000E+00
      0.00000000000000E+00   0.00000000000000E+00  -1.85212382807616E-11  -1.15730287294414E-16  -1.85213540110489E-11
      4.76119169829635E-29
      5.00000000000000E-01
      7.50000000000000E+00   7.50000000000000E+00   0.00000000000000E+00   0.00000000000000E+00   1.98750905142038E-11
      1.02721801000503E-17   1.98751007863839E-11  -8.65241653822925E-30   0.00000000000000E+00   0.00000000000000E+00
      0.00000000000000E+00   0.00000000000000E+00  -1.98750925459197E-11  -8.24046421982454E-18  -1.98751007863839E-11
      7.74177511918105E-29
      5.10000000000000E-01
      7.65000000000000E+00   7.65000000000000E+00   0.00000000000000E+00   0.00000000000000E+00   2.13547544837505E-11
     -9.93837027623196E-18   2.13547445453803E-11   3.61761659621888E-29   0.00000000000000E+00   0.00000000000000E+00
      0.00000000000000E+00   0.00000000000000E+00  -2.13547325768415E-11  -1.19685387107115E-17  -2.13547445453803E-11
     -2.03221596878503E-28
      5.20000000000000E-01
      7.80000000000000E+00   7.80000000000000E+00   0.00000000000000E+00   0.00000000000000E+00   2.28736243897943E-11
     -1.84716453466520E-18   2.28736225426297E-11   2.27671695252947E-29   0.00000000000000E+00   0.00000000000000E+00
      0.00000000000000E+00   0.00000000000000E+00  -2.28737019494481E-11   7.94068183995002E-17  -2.28736225426297E-11
      1.02772064707128E-28
      5.30000000000000E-01
      7.95000000000000E+00   7.95000000000000E+00   0.00000000000000E+00   0.00000000000000E+00   2.45098087802562E-11
      1.19687126697090E-17   2.45098207489689E-11  -1.23565988816304E-29   0.00000000000000E+00   0.00000000000000E+00
      0.00000000000000E+00   0.00000000000000E+00  -2.45098730531831E-11   5.23042141994139E-17  -2.45098207489689E-11
     -1.19223336835388E-28
      5.40000000000000E-01
      8.10000000000000E+00   8.10000000000000E+00   0.00000000000000E+00   0.00000000000000E+00   2.62607192769005E-11
     -7.94601955489807E-18   2.62607113308810E-11  -1.04574446727063E-29   0.00000000000000E+00   0.00000000000000E+00
      0.00000000000000E+00   0.00000000000000E+00  -2.62606941813870E-11  -1.71494939241417E-17  -2.62607113308809E-11
      4.33539406674139E-29
      5.50000000000000E-01
      8.25000000000000E+00   8.25000000000000E+00   0.00000000000000E+00   0.00000000000000E+00   2.80956528010955E-11
     -1.02154943359218E-17   2.80956425856012E-11  -4.50595504983585E-29   0.00000000000000E+00   0.00000000000000E+00
      0.00000000000000E+00   0.00000000000000E+00  -2.80957727530699E-11   1.30167468696023E-16  -2.80956425856012E-11
     -4.37410294233729E-29
      5.60000000000000E-01
      8.40000000000000E+00   8.40000000000000E+00   0.00000000000000E+00   0.00000000000000E+00   3.01226382073093E-11
     -6.88262020463724E-18   3.01226313246891E-11   1.66932026007341E-30   0.00000000000000E+00   0.00000000000000E+00
      0.00000000000000E+00   0.00000000000000E+00  -3.01221060978073E-11  -5.25226881710662E-16  -3.01226313246890E-11
     -1.38190685877382E-28
      5.70000000000000E-01
      8.55000000000000E+00   8.55000000000000E+00   0.00000000000000E+00   0.00000000000000E+00   3.23640685865513E-11
      5.31946122586586E-19   3.23640691184974E-11  -7.75961749152604E-29   0.00000000000000E+00   0.00000000000000E+00
      0.00000000000000E+00   0.00000000000000E+00  -3.23639319103742E-11  -1.37208123087006E-16  -3.23640691184973E-11
      1.18836248079429E-28
      5.80000000000000E-01
      8.70000000000000E+00   8.70000000000000E+00   0.00000000000000E+00   0.00000000000000E+00   3.49089121818282E-11
      1.67259183161536E-18   3.49089138544200E-11  -1.95056443432491E-29   0.00000000000000E+00   0.00000000000000E+00
      0.00000000000000E+00   0.00000000000000E+00  -3.49089137090918E-11  -1.45328168217379E-19  -3.49089138544200E-11
      3.42573549023762E-29
      5.90000000000000E-01
      8.85000000000000E+00   8.85000000000000E+00   0.00000000000000E+00   0.00000000000000E+00   3.80685840765496E-11
      3.79388134650850E-18   3.80685878704310E-11  -5.03699243691717E-29   0.00000000000000E+00   0.00000000000000E+00
      0.00000000000000E+00   0.00000000000000E+00  -3.80684246643342E-11  -1.63206096801264E-16  -3.80685878704310E-11
      1.31610177026078E-29
      6.00000000000000E-01
      9.00000000000001E+00   9.00000000000001E+00   0.00000000000000E+00   0.00000000000000E+00   4.22202165289263E-11
      1.18424357237491E-17   4.22202283713621E-11   1.49198522374967E-28   0.00000000000000E+00   0.00000000000000E+00
      0.00000000000000E+00   0.00000000000000E+00  -4.22204002916487E-11   1.71920286676002E-16  -4.22202283713621E-11
      1.49029171044235E-28
      6.10000000000000E-01
      9.15000000000001E+00   9.15000000000001E+00   0.00000000000000E+00   0.00000000000000E+00   4.78828575846604E-11
      6.09122941413539E-18   4.78828636758898E-11   6.29019228433460E-31   0.00000000000000E+00   0.00000000000000E+00
      0.00000000000000E+00   0.00000000000000E+00  -4.78828408754138E-11  -2.28004760650142E-17  -4.78828636758898E-11
     -1.28900555734364E-28
      6.20000000000000E-01
      9.30000000000000E+00   9.30000000000000E+00   0.00000000000000E+00   0.00000000000000E+00   5.60139799868110E-11
      1.32838373061699E-17   5.60139932706483E-11   6.51004660119572E-29   0.00000000000000E+00   0.00000000000000E+00
      0.00000000000000E+00   0.00000000000000E+00  -5.60135922593311E-11  -4.01011317307360E-16  -5.60139932706484E-11
      1.54061324871703E-28
      6.30000000000000E-01
      9.45000000000000E+00   9.45000000000000E+00   0.00000000000000E+00   0.00000000000000E+00   6.83446481816645E-11
     -4.17237989033169E-18   6.83446440092846E-11  -3.59055062461081E-29   0.00000000000000E+00   0.00000000000000E+00
      0.00000000000000E+00   0.00000000000000E+00  -6.83444446430912E-11  -1.99366193602267E-16  -6.83446440092848E-11
      7.83854730817081E-29
      6.40000000000000E-01
      9.60000000000000E+00   9.60000000000000E+00   0.00000000000000E+00   0.00000000000000E+00   8.78954240006648E-11
      3.29214755895899E-18   8.78954272928124E-11   1.10072316714044E-28   0.00000000000000E+00   0.00000000000000E+00
      0.00000000000000E+00   0.00000000000000E+00  -8.78956841337816E-11   2.56840969280965E-16  -8.78954272928123E-11
     -1.64512721282597E-29
      6.50000000000000E-01
      9.75000000000001E+00   9.75000000000001E+00   0.00000000000000E+00   0.00000000000000E+00   1.19760600399352E-10
     -1.46283380712520E-18   1.19760598936518E-10   4.12854351277577E-29   0.00000000000000E+00   0.00000000000000E+00
      0.00000000000000E+00   0.00000000000000E+00  -1.19760619290362E-10   2.03538439696116E-17  -1.19760598936518E-10
      2.53930223909138E-28
      6.60000000000000E-01
      9.90000000000001E+00   9.90000000000001E+00   0.00000000000000E+00   0.00000000000000E+00   1.71987585316665E-10
      4.58926794831720E-18   1.71987589905933E-10   3.16566023232763E-29   0.00000000000000E+00   0.00000000000000E+00
      0.00000000000000E+00   0.00000000000000E+00  -1.71987230325559E-10  -3.59580373365528E-16  -1.71987589905933E-10
      3.63863430601509E-29
      6.70000000000000E-01
      1.00500000000000E+01   1.00500000000000E+01   0.00000000000000E+00   0.00000000000000E+00   2.55679009542949E-10
      5.51042731147838E-18   2.55679015053376E-10   8.38168121887586E-29   0.00000000000000E+00   0.00000000000000E+00
      0.00000000000000E+00   0.00000000000000E+00  -2.55678888391970E-10  -1.26661406039302E-16  -2.55679015053376E-10
      1.81157537788837E-28
      6.80000000000000E-01
      1.02000000000000E+01   1.02000000000000E+01   0.00000000000000E+00   0.00000000000000E+00   3.82461001213050E-10
      8.50473160719353E-18   3.82461009717781E-10   6.09785755871745E-29   0.00000000000000E+00   0.00000000000000E+00
      0.00000000000000E+00   0.00000000000000E+00  -3.82460717760333E-10  -2.91957448285465E-16  -3.82461009717781E-10
      1.16900804299634E-28
      6.90000000000000E-01