DF-ISE text

Info {
  version   = 1.0
  type      = xyplot
  datasets  = [
    "time"
    "ntype OuterVoltage" "ntype InnerVoltage" "ntype QuasiFermiPotential" "ntype DisplacementCurrent" "ntype eCurrent"
    "ntype hCurrent" "ntype TotalCurrent" "ntype Charge" "ptype OuterVoltage" "ptype InnerVoltage"
    "ptype QuasiFermiPotential" "ptype DisplacementCurrent" "ptype eCurrent" "ptype hCurrent" "ptype TotalCurrent"
    "ptype Charge" ]
  functions = [
    Time
    OuterVoltage InnerVoltage QuasiFermiPotential DisplacementCurrent eCurrent
    hCurrent TotalCurrent Charge OuterVoltage InnerVoltage
    QuasiFermiPotential DisplacementCurrent eCurrent hCurrent TotalCurrent
    Charge ]
}

Data {
      0.00000000000000E+00
      0.00000000000000E+00   0.00000000000000E+00   0.00000000000000E+00   0.00000000000000E+00   7.24115681249999E-07
     -7.24115681216062E-07   3.39371911941488E-17   1.70863396185051E-30   0.00000000000000E+00   0.00000000000000E+00
      0.00000000000000E+00   0.00000000000000E+00   3.58599223803616E-33  -3.39366967235954E-17  -3.39366967235954E-17
      9.63851002338041E-29
      0.00000000000000E+00
      0.00000000000000E+00   0.00000000000000E+00   0.00000000000000E+00   0.00000000000000E+00   7.24115679294643E-07
     -7.24115679255127E-07   3.95160609573721E-17  -2.39798460185727E-29   0.00000000000000E+00   0.00000000000000E+00
      0.00000000000000E+00   0.00000000000000E+00  -2.48571117554187E-34  -3.95153317058474E-17  -3.95153317058474E-17
      8.86433251146230E-29
      0.00000000000000E+00
      0.00000000000000E+00   0.00000000000000E+00   0.00000000000000E+00   0.00000000000000E+00   4.34142778529721E-15
     -3.07157616368665E-18   4.33835620913352E-15   5.54580246183991E-29   0.00000000000000E+00   0.00000000000000E+00
      0.00000000000000E+00   0.00000000000000E+00  -4.07184044619625E-15  -2.66515722095348E-16  -4.33835616829160E-15
      1.78835005253082E-28
      1.00000000000000E-02
      1.50000000000000E-01   1.50000000000000E-01   0.00000000000000E+00   0.00000000000000E+00   7.68741308745408E-14
     -4.09256801526698E-18   7.68700383065256E-14  -1.57708426744255E-30   0.00000000000000E+00   0.00000000000000E+00
      0.00000000000000E+00   0.00000000000000E+00  -7.67427587281566E-14  -1.27279392755178E-16  -7.68700381209118E-14
      2.03995774390421E-28
      2.00000000000000E-02
      3.00000000000000E-01   3.00000000000000E-01   0.00000000000000E+00   0.00000000000000E+00   1.40471692708070E-13
     -7.79984231564117E-18   1.40463892865755E-13   3.22206027372322E-29   0.00000000000000E+00   0.00000000000000E+00
      0.00000000000000E+00   0.00000000000000E+00  -1.40232465357456E-13  -2.31427392991321E-16  -1.40463892750447E-13
      1.07997762912576E-28
      3.00000000000000E-02
      4.50000000000000E-01   4.50000000000000E-01   0.00000000000000E+00   0.00000000000000E+00   2.02757133681659E-13
      5.87459250729991E-18   2.02763008274167E-13  -1.06059295001874E-28   0.00000000000000E+00   0.00000000000000E+00
      0.00000000000000E+00   0.00000000000000E+00  -2.02309718280094E-13  -4.53290091477060E-16  -2.02763008371571E-13
     -7.74177511918105E-31
      4.00000000000000E-02
      6.00000000000000E-01   6.00000000000000E-01   0.00000000000000E+00   0.00000000000000E+00   2.66862792362942E-13
     -7.59433209502556E-19   2.66862032929732E-13  -3.96917181403325E-29   0.00000000000000E+00   0.00000000000000E+00
      0.00000000000000E+00   0.00000000000000E+00  -2.66795403662615E-13  -6.66291546798838E-17  -2.66862032817294E-13
      1.15352449275798E-28
      5.00000000000000E-02
      7.50000000000000E-01   7.50000000000000E-01   0.00000000000000E+00   0.00000000000000E+00   3.35496217539606E-13
     -6.33523080680480E-18   3.35489882308800E-13   4.71446887579973E-29   0.00000000000000E+00   0.00000000000000E+00
      0.00000000000000E+00   0.00000000000000E+00  -3.35723756958308E-13   2.33874536810674E-16  -3.35489882421497E-13
      9.48367452099679E-29
      6.00000000000000E-02
      9.00000000000000E-01   9.00000000000000E-01   0.00000000000000E+00   0.00000000000000E+00   4.14253155497858E-13
      2.50882678832174E-18   4.14255664324646E-13   9.94636654960409E-30   0.00000000000000E+00   0.00000000000000E+00
      0.00000000000000E+00   0.00000000000000E+00  -4.14225707000228E-13  -2.99574752526203E-17  -4.14255664475480E-13
      1.62190188746843E-28
      7.00000000000000E-02
      1.05000000000000E+00   1.05000000000000E+00   0.00000000000000E+00   0.00000000000000E+00   5.05808515985139E-13
     -9.39677703703796E-18   5.05799119208102E-13  -8.11676735151638E-30   0.00000000000000E+00   0.00000000000000E+00
      0.00000000000000E+00   0.00000000000000E+00  -5.06125267236119E-13   3.26147945432960E-16  -5.05799119290686E-13
      5.69020471259807E-29
      8.00000000000000E-02
      1.20000000000000E+00   1.20000000000000E+00   0.00000000000000E+00   0.00000000000000E+00   6.00006223079705E-13
     -5.82334804366178E-18   6.00000399731662E-13   6.77874063218761E-29   0.00000000000000E+00   0.00000000000000E+00
      0.00000000000000E+00   0.00000000000000E+00  -5.99857331597564E-13  -1.43068106895744E-16  -6.00000399704460E-13
      1.99350709318912E-28
      9.00000000000000E-02
      1.35000000000000E+00   1.35000000000000E+00   0.00000000000000E+00   0.00000000000000E+00   7.00560161984279E-13
      1.88341281039502E-18   7.00562045397089E-13   2.22318983549451E-29   0.00000000000000E+00   0.00000000000000E+00
      0.00000000000000E+00   0.00000000000000E+00  -7.00669000595642E-13   1.06955250722039E-16  -7.00562045344920E-13
      2.11350460753643E-28
      1.00000000000000E-01
      1.50000000000000E+00   1.50000000000000E+00   0.00000000000000E+00   0.00000000000000E+00   8.14519146110680E-13
     -1.83309475769623E-18   8.14517313015923E-13   6.17769461463400E-29   0.00000000000000E+00   0.00000000000000E+00
      0.00000000000000E+00   0.00000000000000E+00  -8.14652126732384E-13   1.34813516705933E-16  -8.14517313215678E-13
      1.97415265539117E-28
      1.10000000000000E-01
      1.65000000000000E+00   1.65000000000000E+00   0.00000000000000E+00   0.00000000000000E+00   9.30042304242594E-13
     -4.35370853911288E-18   9.30037950534055E-13  -1.38505195491598E-30   0.00000000000000E+00   0.00000000000000E+00
      0.00000000000000E+00   0.00000000000000E+00  -9.30274837688753E-13   2.36887213768742E-16  -9.30037950474985E-13
      1.23094224394979E-28
      1.20000000000000E-01
      1.80000000000000E+00   1.80000000000000E+00   0.00000000000000E+00   0.00000000000000E+00   1.06565763552061E-12
     -1.06839567698214E-18   1.06565656712494E-12  -5.18910622148546E-29   0.00000000000000E+00   0.00000000000000E+00
      0.00000000000000E+00   0.00000000000000E+00  -1.06576068656981E-12   1.04119424948349E-16  -1.06565656714486E-12
      2.07479573194052E-28
      1.30000000000000E-01
      1.95000000000000E+00   1.95000000000000E+00   0.00000000000000E+00   0.00000000000000E+00   1.20940100912073E-12
     -7.50849881794755E-18   1.20939350062191E-12  -1.16595367078135E-28   0.00000000000000E+00   0.00000000000000E+00
      0.00000000000000E+00   0.00000000000000E+00  -1.20924598973363E-12  -1.47511062400387E-16  -1.20939350079603E-12
      4.64506507150863E-29
      1.40000000000000E-01
      2.10000000000000E+00   2.10000000000000E+00   0.00000000000000E+00   0.00000000000000E+00   1.37056279445702E-12
      1.99083656399004E-18   1.37056478529358E-12  -4.88004004289940E-29   0.00000000000000E+00   0.00000000000000E+00
      0.00000000000000E+00   0.00000000000000E+00  -1.37027244431087E-12  -2.92341005763432E-16  -1.37056478531664E-12
      5.30311595663902E-29
      1.50000000000000E-01
      2.25000000000000E+00   2.25000000000000E+00   0.00000000000000E+00   0.00000000000000E+00   1.55068957691890E-12
      4.19895598897438E-19   1.55068999681450E-12   1.22571049748253E-28   0.00000000000000E+00   0.00000000000000E+00
      0.00000000000000E+00   0.00000000000000E+00  -1.55048242949582E-12  -2.07567483232071E-16  -1.55068999697906E-12
      2.39995028694613E-29
      1.60000000000000E-01
      2.40000000000000E+00   2.40000000000000E+00   0.00000000000000E+00   0.00000000000000E+00   1.74568838118541E-12
     -4.85466209730106E-18   1.74568352652331E-12   3.77139365278543E-29   0.00000000000000E+00   0.00000000000000E+00
      0.00000000000000E+00   0.00000000000000E+00  -1.74566889943830E-12  -1.46270293863649E-17  -1.74568352646769E-12
      2.02834508122544E-28
      1.70000000000000E-01
      2.55000000000000E+00   2.55000000000000E+00   0.00000000000000E+00   0.00000000000000E+00   1.96953817543938E-12
     -4.85361107113253E-19   1.96953769007827E-12  -3.77411537060076E-29   0.00000000000000E+00   0.00000000000000E+00
      0.00000000000000E+00   0.00000000000000E+00  -1.96983411132231E-12   2.96421236665482E-16  -1.96953769008565E-12
      6.61921772689980E-29
      1.80000000000000E-01
      2.70000000000000E+00   2.70000000000000E+00   0.00000000000000E+00   0.00000000000000E+00   2.20971222370201E-12
     -3.61355900657359E-18   2.20970861014300E-12  -8.42719438901011E-29   0.00000000000000E+00   0.00000000000000E+00
      0.00000000000000E+00   0.00000000000000E+00  -2.21016787125027E-12   4.59261034371041E-16  -2.20970861021590E-12
      1.00643076549354E-29
      1.90000000000000E-01
      2.85000000000000E+00   2.85000000000000E+00   0.00000000000000E+00   0.00000000000000E+00   2.48681060190631E-12
      3.04992013916501E-18   2.48681365182645E-12   1.46154734618149E-28   0.00000000000000E+00   0.00000000000000E+00
      0.00000000000000E+00   0.00000000000000E+00  -2.48694177223871E-12   1.28120287967842E-16  -2.48681365195074E-12
      2.63220354052156E-29
      2.00000000000000E-01
      3.00000000000000E+00   3.00000000000000E+00   0.00000000000000E+00   0.00000000000000E+00   2.78681592320930E-12
      1.61122643898316E-17   2.78683203547369E-12  -7.06089204571089E-29   0.00000000000000E+00   0.00000000000000E+00
      0.00000000000000E+00   0.00000000000000E+00  -2.78668343005129E-12  -1.48605578393163E-16  -2.78683203562968E-12
     -1.16126626787716E-29
      2.10000000000000E-01
      3.15000000000000E+00   3.15000000000000E+00   0.00000000000000E+00   0.00000000000000E+00   3.12949366977962E-12
      5.44741027817820E-18   3.12949911718990E-12  -7.75538370825774E-29   0.00000000000000E+00   0.00000000000000E+00
      0.00000000000000E+00   0.00000000000000E+00  -3.12963035711994E-12   1.31239986119345E-16  -3.12949911713382E-12
     -3.85153312179257E-29
      2.20000000000000E-01
      3.30000000000000E+00   3.30000000000000E+00   0.00000000000000E+00   0.00000000000000E+00   3.50865103698402E-12
     -3.14290698646522E-18   3.50864789407704E-12  -2.95487830818430E-29   0.00000000000000E+00   0.00000000000000E+00
      0.00000000000000E+00   0.00000000000000E+00  -3.50845870894656E-12  -1.89184930842112E-16  -3.50864789387741E-12
      1.26965111954569E-28
      2.30000000000000E-01
      3.45000000000000E+00   3.45000000000000E+00   0.00000000000000E+00   0.00000000000000E+00   3.93252132880918E-12
      1.62140245664544E-18   3.93252295021163E-12   7.50241515797668E-29   0.00000000000000E+00   0.00000000000000E+00
      0.00000000000000E+00   0.00000000000000E+00  -3.93289121281840E-12   3.68262731071751E-16  -3.93252295008733E-12
      2.40188573072592E-28
      2.40000000000000E-01
      3.60000000000000E+00   3.60000000000000E+00   0.00000000000000E+00   0.00000000000000E+00   4.41600113719839E-12
     -6.41226033030355E-18   4.41599472493806E-12   9.17551558168251E-29   0.00000000000000E+00   0.00000000000000E+00
      0.00000000000000E+00   0.00000000000000E+00  -4.41568206935959E-12  -3.12655582642390E-16  -4.41599472494223E-12
     -1.00836620927333E-28
      2.50000000000000E-01
      3.75000000000000E+00   3.75000000000000E+00   0.00000000000000E+00   0.00000000000000E+00   4.94394357474235E-12
     -2.63462096617164E-18   4.94394094012138E-12  -2.93945524056406E-29   0.00000000000000E+00   0.00000000000000E+00
      0.00000000000000E+00   0.00000000000000E+00  -4.94393679793575E-12  -4.14219362297910E-18  -4.94394094012938E-12
      3.33089874502765E-28
      2.60000000000000E-01
      3.90000000000000E+00   3.90000000000000E+00   0.00000000000000E+00   0.00000000000000E+00   5.56362555563013E-12
      8.94655224105366E-18   5.56363450218237E-12  -7.79605826894250E-29   0.00000000000000E+00   0.00000000000000E+00
      0.00000000000000E+00   0.00000000000000E+00  -5.56389918545502E-12   2.64683335935970E-16  -5.56363450211908E-12
      2.12898815777479E-28
      2.70000000000000E-01
      4.05000000000000E+00   4.05000000000000E+00   0.00000000000000E+00   0.00000000000000E+00   6.23591442960089E-12
     -7.01085544064509E-18   6.23590741874545E-12   2.13186108213542E-29   0.00000000000000E+00   0.00000000000000E+00
      0.00000000000000E+00   0.00000000000000E+00  -6.23578665872156E-12  -1.20759969522222E-16  -6.23590741869108E-12
      1.36255242097586E-28
      2.80000000000000E-01
      4.20000000000000E+00   4.20000000000000E+00   0.00000000000000E+00   0.00000000000000E+00   7.03179728830087E-12
     -1.81369698511847E-18   7.03179547460388E-12  -1.70938999457699E-29   0.00000000000000E+00   0.00000000000000E+00
      0.00000000000000E+00   0.00000000000000E+00  -7.03167223959902E-12  -1.23234968491479E-16  -7.03179547456751E-12
      3.13541892326833E-29
      2.90000000000000E-01
      4.35000000000000E+00   4.35000000000000E+00   0.00000000000000E+00   0.00000000000000E+00   7.91796273789711E-12
     -3.85655840422425E-18   7.91795888133871E-12   6.90242758624015E-29   0.00000000000000E+00   0.00000000000000E+00
      0.00000000000000E+00   0.00000000000000E+00  -7.91865969576324E-12   7.00814458137161E-16  -7.91795888130510E-12
      1.04901052864903E-28
      3.00000000000000E-01
      4.50000000000000E+00   4.50000000000000E+00   0.00000000000000E+00   0.00000000000000E+00   8.94895296726791E-12
     -1.42625945361191E-18   8.94895154100846E-12   9.85624744860738E-29   0.00000000000000E+00   0.00000000000000E+00
      0.00000000000000E+00   0.00000000000000E+00  -8.94863855311911E-12  -3.12987854033795E-16  -8.94895154097315E-12
      2.30704898551595E-28
      3.10000000000000E-01
      4.65000000000000E+00   4.65000000000000E+00   0.00000000000000E+00   0.00000000000000E+00   1.01534071097431E-11
      3.44461343125916E-18   1.01534105543566E-11  -2.21668795404676E-30   0.00000000000000E+00   0.00000000000000E+00
      0.00000000000000E+00   0.00000000000000E+00  -1.01531654175442E-11  -2.45136815714088E-16  -1.01534105543599E-11
      2.39414395560674E-28
      3.20000000000000E-01
      4.80000000000000E+00   4.80000000000000E+00   0.00000000000000E+00   0.00000000000000E+00   1.15327336647060E-11
      9.06168815806975E-18   1.15327427263941E-11   1.07544143276686E-28   0.00000000000000E+00   0.00000000000000E+00
      0.00000000000000E+00   0.00000000000000E+00  -1.15325521096109E-11  -1.90616805352754E-16  -1.15327427264162E-11
      9.01916801384592E-29
      3.30000000000000E-01
      4.95000000000000E+00   4.95000000000000E+00   0.00000000000000E+00   0.00000000000000E+00   1.32011541223840E-11
     -7.24809794500749E-18   1.32011468742861E-11   1.09081913842352E-28   0.00000000000000E+00   0.00000000000000E+00
      0.00000000000000E+00   0.00000000000000E+00  -1.32015694695610E-11   4.22595220306762E-16  -1.32011468743407E-11
      3.56121655482328E-29
      3.40000000000000E-01
      5.10000000000000E+00   5.10000000000000E+00   0.00000000000000E+00   0.00000000000000E+00   1.51528381909391E-11
     -4.96531493041497E-18   1.51528332256241E-11   1.06252839379854E-28   0.00000000000000E+00   0.00000000000000E+00
      0.00000000000000E+00   0.00000000000000E+00  -1.51525960248619E-11  -2.37200932564909E-16  -1.51528332257945E-11
      2.42317561230367E-28
      3.50000000000000E-01
      5.25000000000000E+00   5.25000000000000E+00   0.00000000000000E+00   0.00000000000000E+00   1.75289991135759E-11
     -1.93430854703662E-18   1.75289971792674E-11   7.55624468810224E-29   0.00000000000000E+00   0.00000000000000E+00
      0.00000000000000E+00   0.00000000000000E+00  -1.75288150497620E-11  -1.82129580365746E-16  -1.75289971793423E-11
      2.65155797831951E-29
      3.60000000000000E-01
      5.40000000000000E+00   5.40000000000000E+00   0.00000000000000E+00   0.00000000000000E+00   2.04526209960094E-11
     -2.15366965071955E-18   2.04526188423397E-11  -5.07570131251308E-29   0.00000000000000E+00   0.00000000000000E+00
      0.00000000000000E+00   0.00000000000000E+00  -2.04529066907445E-11   2.87848341480591E-16  -2.04526188424030E-11
      9.29013014301726E-29
      3.70000000000000E-01
      5.55000000000000E+00   5.55000000000000E+00   0.00000000000000E+00   0.00000000000000E+00   2.40535143814471E-11
     -1.40433170789201E-18   2.40535129771154E-11  -3.73570890809545E-29   0.00000000000000E+00   0.00000000000000E+00
      0.00000000000000E+00   0.00000000000000E+00  -2.40534824775244E-11  -3.04997239415490E-17  -2.40535129772484E-11
     -1.37222963987484E-28
      3.80000000000000E-01
      5.70000000000000E+00   5.70000000000000E+00   0.00000000000000E+00   0.00000000000000E+00   2.86771964843602E-11
     -4.40934507887335E-18   2.86771920750152E-11  -7.01553008212194E-29   0.00000000000000E+00   0.00000000000000E+00
      0.00000000000000E+00   0.00000000000000E+00  -2.86773658345861E-11   1.73759602307166E-16  -2.86771920749838E-11
      1.86770324750243E-28
      3.90000000000000E-01
      5.85000000000000E+00   5.85000000000000E+00   0.00000000000000E+00   0.00000000000000E+00   3.46281506120204E-11
      1.24754158490457E-18   3.46281518595620E-11  -5.28270307302399E-29   0.00000000000000E+00   0.00000000000000E+00
      0.00000000000000E+00   0.00000000000000E+00  -3.46277728100745E-11  -3.79049484304426E-16  -3.46281518595588E-11
      6.32890115993051E-29
      4.00000000000000E-01
      6.00000000000000E+00   6.00000000000000E+00   0.00000000000000E+00   0.00000000000000E+00   4.25178199968746E-11
     -4.94901971076673E-18   4.25178150478548E-11   5.35271170349627E-29   0.00000000000000E+00   0.00000000000000E+00
      0.00000000000000E+00   0.00000000000000E+00  -4.25177969170575E-11  -1.81308653592670E-17  -4.25178150479229E-11
     -2.90316566969289E-29
      4.10000000000000E-01
      6.15000000000000E+00   6.15000000000000E+00   0.00000000000000E+00   0.00000000000000E+00   5.32580816945250E-11
     -4.92440222371173E-19   5.32580812020848E-11   5.88586598221175E-29   0.00000000000000E+00   0.00000000000000E+00
      0.00000000000000E+00   0.00000000000000E+00  -5.32582442068456E-11   1.63004808089435E-16  -5.32580812020376E-11
      4.18055856435777E-29
      4.20000000000000E-01
      6.30000000000000E+00   6.30000000000000E+00   0.00000000000000E+00   0.00000000000000E+00   6.80993827241200E-11
     -1.04693522753034E-20   6.80993827136507E-11   1.07046673742661E-28   0.00000000000000E+00   0.00000000000000E+00
      0.00000000000000E+00   0.00000000000000E+00  -6.80995873482364E-11   2.04634372412146E-16  -6.80993827138640E-11
     -3.87088755959053E-31
      4.30000000000000E-01
      6.45000000000000E+00   6.45000000000000E+00   0.00000000000000E+00   0.00000000000000E+00   8.91969204772186E-11
     -3.19157100181666E-19   8.91969201580615E-11   7.14103151471804E-29   0.00000000000000E+00   0.00000000000000E+00
      0.00000000000000E+00   0.00000000000000E+00  -8.91973178131844E-11   3.97655013087745E-16  -8.91969201581713E-11
      1.45545372240604E-28
      4.40000000000000E-01
      6.60000000000000E+00   6.60000000000000E+00   0.00000000000000E+00   0.00000000000000E+00   1.19560004246714E-10
     -6.85990820412229E-18   1.19559997386806E-10  -1.88781371802686E-30   0.00000000000000E+00   0.00000000000000E+00
      0.00000000000000E+00   0.00000000000000E+00  -1.19559989925175E-10  -7.46134397233076E-18  -1.19559997386519E-10
      2.38446673670776E-28
      4.50000000000000E-01
      6.75000000000000E+00   6.75000000000000E+00   0.00000000000000E+00   0.00000000000000E+00   1.63738484962658E-10
      7.59253345825990E-18   1.63738492555192E-10   1.21645665691038E-29   0.00000000000000E+00   0.00000000000000E+00
      0.00000000000000E+00   0.00000000000000E+00  -1.63738492616978E-10   6.16647703384084E-20  -1.63738492555314E-10
      1.94705644247403E-28
      4.60000000000000E-01
      6.90000000000000E+00   6.90000000000000E+00   0.00000000000000E+00   0.00000000000000E+00   2.28284973237661E-10
     -3.57800931654318E-18   2.28284969659651E-10  -8.08592121627590E-29   0.00000000000000E+00   0.00000000000000E+00
      0.00000000000000E+00   0.00000000000000E+00  -2.28285360386467E-10   3.90726780530750E-16  -2.28284969659686E-10
      1.41287395925054E-28
      4.70000000000000E-01
      7.05000000000000E+00   7.05000000000000E+00   0.00000000000000E+00   0.00000000000000E+00   3.22054983255178E-10
      5.43767268173023E-18   3.22054988692851E-10  -8.16844218837146E-29   0.00000000000000E+00   0.00000000000000E+00
      0.00000000000000E+00   0.00000000000000E+00  -3.22054580839019E-10  -4.07853538808839E-16  -3.22054988692558E-10
      2.77929726778600E-28
      4.80000000000000E-01
      7.20000000000000E+00   7.20000000000000E+00   0.00000000000000E+00   0.00000000000000E+00   4.57357199295772E-10
     -4.29081849204774E-18   4.57357195004954E-10   1.69506317441014E-29   0.00000000000000E+00   0.00000000000000E+00
      0.00000000000000E+00   0.00000000000000E+00  -4.57357470893843E-10   2.75888887911642E-16  -4.57357195004955E-10
      5.92245796617350E-29
      4.90000000000000E-01
      7.35000000000000E+00   7.35000000000000E+00   0.00000000000000E+00   0.00000000000000E+00   6.50423595060536E-10
     -5.52785978422402E-18   6.50423589532677E-10  -2.71772501750035E-29   0.00000000000000E+00   0.00000000000000E+00
      0.00000000000000E+00   0.00000000000000E+00  -6.50423923532539E-10   3.33999882626439E-16  -6.50423589532656E-10
      4.66441950930658E-29
      5.00000000000000E-01
      7.50000000000000E+00   7.50000000000000E+00   0.00000000000000E+00   0.00000000000000E+00   9.23433655771868E-10
     -9.12377772898729E-19   9.23433654859490E-10  -8.60830202863900E-29   0.00000000000000E+00   0.00000000000000E+00
      0.00000000000000E+00   0.00000000000000E+00  -9.23433868417555E-10   2.13557989433716E-16  -9.23433654859566E-10
      3.84379134667339E-28
      5.10000000000000E-01
      7.65000000000000E+00   7.65000000000000E+00   0.00000000000000E+00   0.00000000000000E+00   1.30678131679532E-09
      2.31926277011583E-18   1.30678131911458E-09   1.59878240669259E-28   0.00000000000000E+00   0.00000000000000E+00
      0.00000000000000E+00   0.00000000000000E+00  -1.30678154932246E-09   2.30207865823895E-16  -1.30678131911460E-09
      1.40900307169095E-28
      5.20000000000000E-01
      7.80000000000000E+00   7.80000000000000E+00   0.00000000000000E+00   0.00000000000000E+00   1.84265024428408E-09
      1.56638978728423E-17   1.84265025994797E-09  -1.12530179107838E-28   0.00000000000000E+00   0.00000000000000E+00
      0.00000000000000E+00   0.00000000000000E+00  -1.84265038524779E-09   1.25299811432244E-16  -1.84265025994798E-09
      1.84254247836509E-28
      5.30000000000000E-01
      7.95000000000000E+00   7.95000000000000E+00   0.00000000000000E+00   0.00000000000000E+00   2.59113847220344E-09
      1.20897565690801E-17   2.59113848429319E-09  -1.09880284401517E-28   0.00000000000000E+00   0.00000000000000E+00
      0.00000000000000E+00   0.00000000000000E+00  -2.59113848863755E-09   4.34440541580121E-18  -2.59113848429314E-09
      2.31672620441493E-28
      5.40000000000000E-01
      8.10000000000000E+00   8.10000000000000E+00   0.00000000000000E+00   0.00000000000000E+00   3.63764299612874E-09
      1.38345168713063E-17   3.63764300996325E-09   8.27976800734602E-29   0.00000000000000E+00   0.00000000000000E+00
      0.00000000000000E+00   0.00000000000000E+00  -3.63764287080895E-09  -1.39154091741212E-16  -3.63764300996304E-09
      7.74177511918105E-29
      5.50000000000000E-01
      8.25000000000000E+00   8.25000000000000E+00   0.00000000000000E+00   0.00000000000000E+00   5.10620584842123E-09
     -3.37432546516048E-18   5.10620584504690E-09   2.17105381867628E-28   0.00000000000000E+00   0.00000000000000E+00
      0.00000000000000E+00   0.00000000000000E+00  -5.10620563194107E-09  -2.13105955428618E-16  -5.10620584504702E-09
      1.68383608842188E-28
      5.60000000000000E-01
      8.40000000000000E+00   8.40000000000000E+00   0.00000000000000E+00   0.00000000000000E+00   7.17785356657938E-09
     -1.65723682934860E-18   7.17785356492214E-09   1.85984050714701E-30   0.00000000000000E+00   0.00000000000000E+00
      0.00000000000000E+00   0.00000000000000E+00  -7.17785377545632E-09   2.10534255064839E-16  -7.17785356492207E-09
      9.07723132723978E-29
      5.70000000000000E-01
      8.55000000000000E+00   8.55000000000000E+00   0.00000000000000E+00   0.00000000000000E+00   1.01217379628061E-08
      2.29441209200452E-18   1.01217379651005E-08  -1.71035771646689E-28   0.00000000000000E+00   0.00000000000000E+00
      0.00000000000000E+00   0.00000000000000E+00  -1.01217380313260E-08   6.62256597260637E-17  -1.01217379651004E-08
      6.50309110011208E-29
      5.80000000000000E-01
      8.70000000000000E+00   8.70000000000000E+00   0.00000000000000E+00   0.00000000000000E+00   1.43475605549597E-08
     -1.88454455297400E-19   1.43475605547713E-08   2.20428901733245E-29   0.00000000000000E+00   0.00000000000000E+00
      0.00000000000000E+00   0.00000000000000E+00  -1.43475604281565E-08  -1.26614878658923E-16  -1.43475605547714E-08
      6.03858459296122E-29
      5.90000000000000E-01
      8.85000000000000E+00   8.85000000000000E+00   0.00000000000000E+00   0.00000000000000E+00   2.04838667734306E-08
     -1.02620537687327E-17   2.04838667631686E-08  -5.85501984697126E-29   0.00000000000000E+00   0.00000000000000E+00
      0.00000000000000E+00   0.00000000000000E+00  -2.04838667660462E-08   2.87747362554065E-18  -2.04838667631687E-08
     -9.50302895879474E-29
      6.00000000000000E-01
      9.00000000000001E+00   9.00000000000001E+00   0.00000000000000E+00   0.00000000000000E+00   2.94861664309320E-08
      3.60470970620312E-18   2.94861664345367E-08  -4.91844650540471E-29   0.00000000000000E+00   0.00000000000000E+00
      0.00000000000000E+00   0.00000000000000E+00  -2.94861666736653E-08   2.39128683437136E-16  -2.94861664345366E-08
      1.71480318889860E-28
      6.10000000000000E-01
      9.15000000000001E+00   9.15000000000001E+00   0.00000000000000E+00   0.00000000000000E+00   4.27287425955653E-08
      1.47834623562353E-18   4.27287425970436E-08   5.10896675247831E-29   0.00000000000000E+00   0.00000000000000E+00
      0.00000000000000E+00   0.00000000000000E+00  -4.27287429446898E-08   3.47646213819089E-16  -4.27287425970436E-08
     -4.49022956912501E-29
      6.20000000000000E-01
      9.30000000000000E+00   9.30000000000000E+00   0.00000000000000E+00   0.00000000000000E+00   6.19879220675863E-08
      4.66079194299525E-18   6.19879220722471E-08  -4.52107570436550E-30   0.00000000000000E+00   0.00000000000000E+00
      0.00000000000000E+00   0.00000000000000E+00  -6.19879222283282E-08   1.56081084401320E-16  -6.19879220722471E-08
      5.05925004038482E-28
      6.30000000000000E-01
      9.45000000000000E+00   9.45000000000000E+00   0.00000000000000E+00   0.00000000000000E+00   8.92338104203188E-08
      2.85767267931437E-16   8.92338107060860E-08  -1.28779590498127E-28   0.00000000000000E+00   0.00000000000000E+00
      0.00000000000000E+00   0.00000000000000E+00  -8.92338107064653E-08   3.79476318235975E-19  -8.92338107060858E-08
      2.66897697233767E-28
      6.40000000000000E-01
      9.60000000000000E+00   9.60000000000000E+00   0.00000000000000E+00   0.00000000000000E+00   1.26208395323432E-07
     -6.13901430565976E-18   1.26208395317293E-07   6.83907204376092E-29   0.00000000000000E+00   0.00000000000000E+00
      0.00000000000000E+00   0.00000000000000E+00  -1.26208395344933E-07   2.76404838059162E-17  -1.26208395317292E-07
      1.16513715543675E-28
      6.50000000000000E-01
      9.75000000000001E+00   9.75000000000001E+00   0.00000000000000E+00   0.00000000000000E+00   1.73859461731567E-07
     -3.46916070820852E-18   1.73859461728098E-07   4.03419062851075E-29   0.00000000000000E+00   0.00000000000000E+00
      0.00000000000000E+00   0.00000000000000E+00  -1.73859462033570E-07   3.05472016765278E-16  -1.73859461728098E-07
      3.21670756201973E-28
      6.60000000000000E-01
      9.90000000000001E+00   9.90000000000001E+00   0.00000000000000E+00   0.00000000000000E+00   2.31782781855065E-07
     -2.19169418730241E-18   2.31782781852873E-07  -4.18781647853200E-29   0.00000000000000E+00   0.00000000000000E+00
      0.00000000000000E+00   0.00000000000000E+00  -2.31782781934864E-07   8.19902336049907E-17  -2.31782781852874E-07
      3.01929229648061E-28
      6.70000000000000E-01
      1.00500000000000E+01   1.00500000000000E+01   0.00000000000000E+00   0.00000000000000E+00   2.97848249335804E-07
     -4.38901038429050E-18   2.97848249331415E-07   5.26198777631837E-31   0.00000000000000E+00   0.00000000000000E+00
      0.00000000000000E+00   0.00000000000000E+00  -2.97848249267369E-07  -6.40459444559107E-17  -2.97848249331414E-07
      3.32509241368826E-28
      6.80000000000000E-01
      1.02000000000000E+01   1.02000000000000E+01   0.00000000000000E+00   0.00000000000000E+00   3.68167119085906E-07
     -1.07957815250837E-19   3.68167119085798E-07  -2.47131977632608E-29   0.00000000000000E+00   0.00000000000000E+00
      0.00000000000000E+00   0.00000000000000E+00  -3.68167118908778E-07  -1.77020575581622E-16  -3.68167119085798E-07
      1.23868401906897E-28
      6.90000000000000E-01