DF-ISE text

Info {
  version   = 1.0
  type      = xyplot
  datasets  = [
    "time"
    "ntype OuterVoltage" "ntype InnerVoltage" "ntype QuasiFermiPotential" "ntype DisplacementCurrent" "ntype eCurrent"
    "ntype hCurrent" "ntype TotalCurrent" "ntype Charge" "ptype OuterVoltage" "ptype InnerVoltage"
    "ptype QuasiFermiPotential" "ptype DisplacementCurrent" "ptype eCurrent" "ptype hCurrent" "ptype TotalCurrent"
    "ptype Charge" ]
  functions = [
    Time
    OuterVoltage InnerVoltage QuasiFermiPotential DisplacementCurrent eCurrent
    hCurrent TotalCurrent Charge OuterVoltage InnerVoltage
    QuasiFermiPotential DisplacementCurrent eCurrent hCurrent TotalCurrent
    Charge ]
}

Data {
      0.00000000000000E+00
      1.50000000000000E+01   1.50000000000000E+01   0.00000000000000E+00   0.00000000000000E+00   1.44375675925323E-05
     -1.30067649260410E-17   1.44375675925193E-05  -6.47164013869041E-30   0.00000000000000E+00   0.00000000000000E+00
      0.00000000000000E+00   0.00000000000000E+00  -1.44375675921867E-05  -3.32527768781553E-16  -1.44375675925192E-05
     -2.12076252171066E-28
      3.33333333333333E-02
      1.45000000000000E+01   1.45000000000000E+01   0.00000000000000E+00   0.00000000000000E+00   1.44143583185527E-05
      3.47293387178974E-17   1.44143583185874E-05  -6.80429453834272E-29   0.00000000000000E+00   0.00000000000000E+00
      0.00000000000000E+00   0.00000000000000E+00  -1.44143583186667E-05   7.94013388546294E-17  -1.44143583185873E-05
     -1.80093043709949E-28
      6.66666666666667E-02
      1.40000000000000E+01   1.40000000000000E+01   0.00000000000000E+00   0.00000000000000E+00   1.43791587708920E-05
     -2.38947711179715E-18   1.43791587708896E-05   1.23263575725711E-29   0.00000000000000E+00   0.00000000000000E+00
      0.00000000000000E+00   0.00000000000000E+00  -1.43791587710307E-05   1.41164465040511E-16  -1.43791587708896E-05
      2.79187765235467E-29
      1.00000000000000E-01
      1.35000000000000E+01   1.35000000000000E+01   0.00000000000000E+00   0.00000000000000E+00   1.43253804899402E-05
     -3.72020562979745E-17   1.43253804899030E-05  -2.30680705504348E-29   0.00000000000000E+00   0.00000000000000E+00
      0.00000000000000E+00   0.00000000000000E+00  -1.43253804899133E-05   1.03675063651936E-17  -1.43253804899029E-05
      1.34029481750822E-29
      1.33333333333333E-01
      1.30000000000000E+01   1.30000000000000E+01   0.00000000000000E+00   0.00000000000000E+00   1.42428125302033E-05
     -1.13829238515362E-16   1.42428125300895E-05   8.70707770435394E-29   0.00000000000000E+00   0.00000000000000E+00
      0.00000000000000E+00   0.00000000000000E+00  -1.42428125299456E-05  -1.43838036976367E-16  -1.42428125300894E-05
     -8.40466461376093E-29
      1.66666666666667E-01
      1.25000000000000E+01   1.25000000000000E+01   0.00000000000000E+00   0.00000000000000E+00   1.41159598768650E-05
     -1.78846088432333E-16   1.41159598766861E-05  -8.93812130556700E-29   0.00000000000000E+00   0.00000000000000E+00
      0.00000000000000E+00   0.00000000000000E+00  -1.41159598767746E-05   8.85948900635042E-17  -1.41159598766860E-05
     -8.66111091458380E-30
      2.00000000000000E-01
      1.20000000000000E+01   1.20000000000000E+01   0.00000000000000E+00   0.00000000000000E+00   1.39219034940385E-05
     -2.23227139357595E-16   1.39219034938153E-05  -3.06404943388838E-29   0.00000000000000E+00   0.00000000000000E+00
      0.00000000000000E+00   0.00000000000000E+00  -1.39219034937657E-05  -4.95561806713530E-17  -1.39219034938152E-05
     -1.47625974303884E-28
      2.33333333333333E-01
      1.15000000000000E+01   1.15000000000000E+01   0.00000000000000E+00   0.00000000000000E+00   1.36272165049209E-05
      3.69788532921746E-17   1.36272165049579E-05   6.41478647765892E-29   0.00000000000000E+00   0.00000000000000E+00
      0.00000000000000E+00   0.00000000000000E+00  -1.36272165051027E-05   1.44904881235506E-16  -1.36272165049578E-05
     -8.37079434761451E-29
      2.66666666666667E-01
      1.10000000000000E+01   1.10000000000000E+01   0.00000000000000E+00   0.00000000000000E+00   1.31866722870535E-05
     -1.01843915833214E-17   1.31866722870434E-05   6.91195359859383E-29   0.00000000000000E+00   0.00000000000000E+00
      0.00000000000000E+00   0.00000000000000E+00  -1.31866722869955E-05  -4.77698472286507E-17  -1.31866722870433E-05
      2.30317809795636E-29
      3.00000000000000E-01
      1.05000000000000E+01   1.05000000000000E+01   0.00000000000000E+00   0.00000000000000E+00   1.25539284282157E-05
      1.26606561828856E-18   1.25539284282169E-05   4.64869402859575E-29   0.00000000000000E+00   0.00000000000000E+00
      0.00000000000000E+00   0.00000000000000E+00  -1.25539284281970E-05  -1.98929732691683E-17  -1.25539284282169E-05
      4.36442572343832E-29
      3.33333333333333E-01
      1.00000000000000E+01   1.00000000000000E+01   0.00000000000000E+00   0.00000000000000E+00   1.17082566916373E-05
      8.64714811655143E-17   1.17082566917237E-05  -7.44934166057761E-29   0.00000000000000E+00   0.00000000000000E+00
      0.00000000000000E+00   0.00000000000000E+00  -1.17082566916819E-05  -4.17899112910499E-17  -1.17082566917237E-05
      4.52893844472091E-29
      3.66666666666667E-01
      9.50000000000000E+00   9.50000000000000E+00   0.00000000000000E+00   0.00000000000000E+00   1.06815720641750E-05
      3.45715799497803E-16   1.06815720645207E-05  -6.41811302165545E-29   0.00000000000000E+00   0.00000000000000E+00
      0.00000000000000E+00   0.00000000000000E+00  -1.06815720646179E-05   9.72541566583465E-17  -1.06815720645207E-05
      1.10900928582269E-28
      4.00000000000000E-01
      9.00000000000000E+00   9.00000000000000E+00   0.00000000000000E+00   0.00000000000000E+00   9.52781845368497E-06
      2.74505933483114E-16   9.52781845395947E-06   7.96223426222335E-29   0.00000000000000E+00   0.00000000000000E+00
      0.00000000000000E+00   0.00000000000000E+00  -9.52781845395128E-06  -8.16826372746357E-18  -9.52781845395945E-06
      6.53212275680901E-29
      4.33333333333333E-01
      8.50000000000000E+00   8.50000000000000E+00   0.00000000000000E+00   0.00000000000000E+00   8.23483847258575E-06
     -1.64981700854253E-16   8.23483847242077E-06   8.13808747440319E-29   0.00000000000000E+00   0.00000000000000E+00
      0.00000000000000E+00   0.00000000000000E+00  -8.23483847242129E-06   5.53495431419670E-19  -8.23483847242074E-06
     -2.22430876392971E-28
      4.66666666666667E-01
      8.00000000000000E+00   8.00000000000000E+00   0.00000000000000E+00   0.00000000000000E+00   6.63444942739565E-06
      7.31683085407486E-16   6.63444942812733E-06  -1.94867435250871E-29   0.00000000000000E+00   0.00000000000000E+00
      0.00000000000000E+00   0.00000000000000E+00  -6.63444942800512E-06  -1.22155285867385E-16  -6.63444942812727E-06
      2.22140559826001E-28
      5.00000000000000E-01
      7.50000000000000E+00   7.50000000000000E+00   0.00000000000000E+00   0.00000000000000E+00   4.48478223981608E-06
      6.49673625145792E-16   4.48478224046576E-06  -4.30182621368556E-31   0.00000000000000E+00   0.00000000000000E+00
      0.00000000000000E+00   0.00000000000000E+00  -4.48478224034382E-06  -1.21909959228103E-16  -4.48478224046573E-06
     -1.94076625018970E-28
      5.33333333333333E-01
      7.00000000000000E+00   7.00000000000000E+00   0.00000000000000E+00   0.00000000000000E+00   2.24377033059826E-06
      1.39751142071120E-17   2.24377033061223E-06   5.86877964259325E-29   0.00000000000000E+00   0.00000000000000E+00
      0.00000000000000E+00   0.00000000000000E+00  -2.24377033069340E-06   8.11733543331431E-17  -2.24377033061223E-06
     -2.02737735933554E-29
      5.66666666666667E-01
      6.50000000000000E+00   6.50000000000000E+00   0.00000000000000E+00   0.00000000000000E+00   8.81639425580688E-07
      6.77013582592733E-17   8.81639425648389E-07   3.98383884892701E-29   0.00000000000000E+00   0.00000000000000E+00
      0.00000000000000E+00   0.00000000000000E+00  -8.81639425553993E-07  -9.43899582121041E-17  -8.81639425648383E-07
     -1.35577836774658E-28
      6.00000000000000E-01
      6.00000000000000E+00   6.00000000000000E+00   0.00000000000000E+00   0.00000000000000E+00   3.32795963303241E-07
     -2.20420898797021E-17   3.32795963281199E-07  -5.16491317423801E-29   0.00000000000000E+00   0.00000000000000E+00
      0.00000000000000E+00   0.00000000000000E+00  -3.32795963526166E-07   2.44970020068125E-16  -3.32795963281196E-07
     -1.50867842635041E-28
      6.33333333333333E-01
      5.50000000000000E+00   5.50000000000000E+00   0.00000000000000E+00   0.00000000000000E+00   1.31381183430407E-07
     -2.20942933874244E-17   1.31381183408312E-07   1.24367383506375E-29   0.00000000000000E+00   0.00000000000000E+00
      0.00000000000000E+00   0.00000000000000E+00  -1.31381183324367E-07  -8.39450761799488E-17  -1.31381183408312E-07
      1.68625539314662E-28
      6.66666666666667E-01
      5.00000000000000E+00   5.00000000000000E+00   0.00000000000000E+00   0.00000000000000E+00   5.32934142229116E-08
      8.43206614093812E-18   5.32934142313437E-08   7.60780612004835E-29   0.00000000000000E+00   0.00000000000000E+00
      0.00000000000000E+00   0.00000000000000E+00  -5.32934144867991E-08   2.55456772253145E-16  -5.32934142313423E-08
     -8.52562984999813E-29
      7.00000000000000E-01
      4.50000000000000E+00   4.50000000000000E+00   0.00000000000000E+00   0.00000000000000E+00   2.14830752668259E-08
      3.40891940989035E-17   2.14830753009151E-08   5.87210618658977E-29   0.00000000000000E+00   0.00000000000000E+00
      0.00000000000000E+00   0.00000000000000E+00  -2.14830751794612E-08  -1.21451993264895E-16  -2.14830753009132E-08
      2.71107287454821E-28
      7.33333333333333E-01
      4.00000000000000E+00   4.00000000000000E+00   0.00000000000000E+00   0.00000000000000E+00   8.38574460459296E-09
     -4.91924019020376E-17   8.38574455540056E-09   4.44093623535835E-30   0.00000000000000E+00   0.00000000000000E+00
      0.00000000000000E+00   0.00000000000000E+00  -8.38574455754200E-09   2.14268646770875E-18  -8.38574455539932E-09
      4.76506258585594E-28
      7.66666666666667E-01
      3.50000000000000E+00   3.50000000000000E+00   0.00000000000000E+00   0.00000000000000E+00   3.11011824149484E-09
      6.28779576247902E-18   3.11011824778264E-09   1.04045223818525E-29   0.00000000000000E+00   0.00000000000000E+00
      0.00000000000000E+00   0.00000000000000E+00  -3.11011817879823E-09  -6.89855685242842E-17  -3.11011824778379E-09
      3.26025504706512E-28
      8.00000000000000E-01
      3.00000000000000E+00   3.00000000000000E+00   0.00000000000000E+00   0.00000000000000E+00   1.07987594408591E-09
     -3.27968182480574E-17   1.07987591128909E-09   1.80238201993434E-30   0.00000000000000E+00   0.00000000000000E+00
      0.00000000000000E+00   0.00000000000000E+00  -1.07987610202195E-09   1.90729961811233E-16  -1.07987591129198E-09
      3.83701729344411E-29
      8.33333333333333E-01
      2.50000000000000E+00   2.50000000000000E+00   0.00000000000000E+00   0.00000000000000E+00   3.45946718786470E-10
     -9.58056372391899E-18   3.45946709205906E-10   3.81418510510434E-29   0.00000000000000E+00   0.00000000000000E+00
      0.00000000000000E+00   0.00000000000000E+00  -3.45946524139189E-10  -1.85066325381701E-16  -3.45946709205515E-10
     -1.19078178551904E-28
      8.66666666666667E-01
      2.00000000000000E+00   2.00000000000000E+00   0.00000000000000E+00   0.00000000000000E+00   1.00536316673428E-10
     -2.94414539647339E-18   1.00536313729283E-10  -4.86280249673560E-30   0.00000000000000E+00   0.00000000000000E+00
      0.00000000000000E+00   0.00000000000000E+00  -1.00536446367888E-10   1.32638703672178E-16  -1.00536313729184E-10
     -3.52492698395212E-28
      9.00000000000000E-01
      1.50000000000000E+00   1.50000000000000E+00   0.00000000000000E+00   0.00000000000000E+00   2.59193029007686E-11
      4.42851018349701E-17   2.59193471858704E-11  -1.07099596033514E-29   0.00000000000000E+00   0.00000000000000E+00
      0.00000000000000E+00   0.00000000000000E+00  -2.59195817627466E-11   2.34573741339823E-16  -2.59193471890053E-11
      1.75206048165966E-28
      9.33333333333333E-01
      1.00000000000000E+00   1.00000000000000E+00   0.00000000000000E+00   0.00000000000000E+00   5.73931151833043E-12
     -1.62125502056894E-17   5.73929530578022E-12   5.56757620436261E-29   0.00000000000000E+00   0.00000000000000E+00
      0.00000000000000E+00   0.00000000000000E+00  -5.73912879075552E-12  -1.66514515187659E-16  -5.73929530527071E-12
      1.22465205166545E-28
      9.66666666666667E-01
      5.00000000000002E-01   5.00000000000002E-01   0.00000000000000E+00   0.00000000000000E+00   1.03338197211914E-12
     -1.86657231465581E-17   1.03336330639600E-12  -4.82651292586444E-30   0.00000000000000E+00   0.00000000000000E+00
      0.00000000000000E+00   0.00000000000000E+00  -1.03328395984714E-12  -7.93437001129434E-17  -1.03336330354725E-12
     -1.63206296731236E-28
      1.00000000000000E+00
      0.00000000000000E+00   0.00000000000000E+00   0.00000000000000E+00   0.00000000000000E+00   1.20369450954335E-13
      2.79059587994806E-17   1.20397356913134E-13  -4.55781889487255E-29   0.00000000000000E+00   0.00000000000000E+00
      0.00000000000000E+00   0.00000000000000E+00  -1.20114761430813E-13  -2.82597001035940E-16  -1.20397358431849E-13
     -4.29523360831064E-28
}
