DF-ISE text

Info {
  version   = 1.0
  type      = xyplot
  datasets  = [
    "time"
    "ntype OuterVoltage" "ntype InnerVoltage" "ntype QuasiFermiPotential" "ntype DisplacementCurrent" "ntype eCurrent"
    "ntype hCurrent" "ntype TotalCurrent" "ntype Charge" "ptype OuterVoltage" "ptype InnerVoltage"
    "ptype QuasiFermiPotential" "ptype DisplacementCurrent" "ptype eCurrent" "ptype hCurrent" "ptype TotalCurrent"
    "ptype Charge" ]
  functions = [
    Time
    OuterVoltage InnerVoltage QuasiFermiPotential DisplacementCurrent eCurrent
    hCurrent TotalCurrent Charge OuterVoltage InnerVoltage
    QuasiFermiPotential DisplacementCurrent eCurrent hCurrent TotalCurrent
    Charge ]
}

Data {
      1.00000000000000E-15
      1.50000000000000E+01   1.50000000000000E+01   0.00000000000000E+00   6.15347520792108E-08   1.58636681637891E-05
     -4.56662557595397E-21   1.59252029158684E-05  -2.76962004888702E-28   0.00000000000000E+00   0.00000000000000E+00
      0.00000000000000E+00  -2.02951260455216E-09  -1.59231734032638E-05   1.87036776535391E-21  -1.59252029158683E-05
      3.61153809309796E-28
      2.30000000000000E-15
      1.50000000000000E+01   1.50000000000000E+01   0.00000000000000E+00   1.41687243708510E-07   1.57835157058295E-05
      7.74641405646687E-21   1.59252029495380E-05  -4.01701356496507E-28   0.00000000000000E+00   0.00000000000000E+00
      0.00000000000000E+00  -2.50055180904054E-09  -1.59227023977289E-05  -8.47709364089030E-21  -1.59252029495380E-05
     -7.29275216226855E-28
      3.99000000000000E-15
      1.50000000000000E+01   1.50000000000000E+01   0.00000000000000E+00   2.46152521079706E-07   1.56790504268869E-05
      1.96317375753405E-20   1.59252029479666E-05  -3.51379818221830E-28   0.00000000000000E+00   0.00000000000000E+00
      0.00000000000000E+00  -4.25947307508744E-09  -1.59209434748916E-05  -2.48920306262828E-21  -1.59252029479667E-05
     -1.36681039729141E-27
      6.18700000000000E-15
      1.50000000000000E+01   1.50000000000000E+01   0.00000000000000E+00   3.82412971446266E-07   1.55427898145111E-05
      1.67889375479254E-20   1.59252027859574E-05  -8.50627541220018E-29   0.00000000000000E+00   0.00000000000000E+00
      0.00000000000000E+00  -7.74065654433313E-09  -1.59174621294131E-05   3.18776891995393E-21  -1.59252027859574E-05
      1.00488241046970E-27
      9.04310000000000E-15
      1.50000000000000E+01   1.50000000000000E+01   0.00000000000000E+00   5.60330548926996E-07   1.53648715771148E-05
     -4.35492770157200E-21   1.59252021260418E-05   1.13126688929033E-28   0.00000000000000E+00   0.00000000000000E+00
      0.00000000000000E+00  -1.40913117500481E-08  -1.59111108142918E-05  -4.98012330149367E-21  -1.59252021260418E-05
      2.65542886587910E-28
      1.27560300000000E-14
      1.50000000000000E+01   1.50000000000000E+01   0.00000000000000E+00   7.92959481798889E-07   1.51322407003947E-05
     -3.84512465714195E-21   1.59252001821935E-05  -1.41287395925054E-29   0.00000000000000E+00   0.00000000000000E+00
      0.00000000000000E+00  -2.42328098146160E-08  -1.59009673723790E-05   2.32006331282560E-21  -1.59252001821936E-05
     -6.61921772689980E-28
      1.75828390000000E-14
      1.50000000000000E+01   1.50000000000000E+01   0.00000000000000E+00   1.09767668189655E-06   1.48275185759160E-05
     -1.05805733543153E-20   1.59251952578125E-05  -7.41274967661586E-29   0.00000000000000E+00   0.00000000000000E+00
      0.00000000000000E+00  -3.95382377336091E-08  -1.58856570200789E-05  -1.64564086901166E-20  -1.59251952578126E-05
      1.58125756809273E-27
      2.38576907000000E-14
      1.50000000000000E+01   1.50000000000000E+01   0.00000000000000E+00   1.49778302687741E-06   1.44274009775562E-05
      3.22601638369426E-20   1.59251840044336E-05   5.96116684176941E-29   0.00000000000000E+00   0.00000000000000E+00
      0.00000000000000E+00  -6.19651559669152E-08  -1.58632188484667E-05   6.00734065799937E-21  -1.59251840044336E-05
     -4.58313087055518E-28
      3.20149979100000E-14
      1.50000000000000E+01   1.50000000000000E+01   0.00000000000000E+00   2.02481578709239E-06   1.39003446274500E-05
      1.88670330086954E-20   1.59251604145424E-05   2.33801608599268E-28   0.00000000000000E+00   0.00000000000000E+00
      0.00000000000000E+00  -9.47668809579318E-08  -1.58303935335844E-05  -1.01014136784606E-20  -1.59251604145424E-05
      1.78060827741164E-28
      4.26194972830000E-14
      1.50000000000000E+01   1.50000000000000E+01   0.00000000000000E+00   2.72191011600419E-06   1.32032043762086E-05
      1.85775685682139E-22   1.59251144922128E-05   2.69317001958511E-28   0.00000000000000E+00   0.00000000000000E+00
      0.00000000000000E+00  -1.41767021561560E-07  -1.57833474706513E-05  -1.35224886253724E-21  -1.59251144922129E-05
     -1.43377675207233E-27
      5.64053464679000E-14
      1.50000000000000E+01   1.50000000000000E+01   0.00000000000000E+00   3.64825716231323E-06   1.22767717893411E-05
     -8.32966330221312E-21   1.59250289516544E-05   1.88996085097007E-28   0.00000000000000E+00   0.00000000000000E+00
      0.00000000000000E+00  -2.07623482052420E-07  -1.57174054696019E-05   5.14123831123985E-21  -1.59250289516543E-05
      3.78185714571994E-28
      7.43269504082700E-14
      1.50000000000000E+01   1.50000000000000E+01   0.00000000000000E+00   4.88163620682558E-06   1.10432309161476E-05
     -8.46791497527889E-22   1.59248671229732E-05   5.85665287766047E-28   0.00000000000000E+00   0.00000000000000E+00
      0.00000000000000E+00  -2.96916461058572E-07  -1.56279506619146E-05  -2.70292821755554E-21  -1.59248671229732E-05
      1.50577526068071E-28
      9.76250355307510E-14
      1.50000000000000E+01   1.50000000000000E+01   0.00000000000000E+00   6.50291004279215E-06   9.42162442615872E-06
      1.43392907157911E-20   1.59245344689509E-05  -2.63220354052156E-29   0.00000000000000E+00   0.00000000000000E+00
      0.00000000000000E+00  -4.11912683174095E-07  -1.55126217857768E-05  -3.70210328447897E-21  -1.59245344689509E-05
     -1.07030041022678E-27
      1.27912546189976E-13
      1.50000000000000E+01   1.50000000000000E+01   0.00000000000000E+00   8.52251648139340E-06   7.40126906986805E-06
      1.27018724629183E-21   1.59237855512614E-05  -1.97221721161137E-28   0.00000000000000E+00   0.00000000000000E+00
      0.00000000000000E+00  -5.49250956640133E-07  -1.53745345946213E-05   3.24990791656382E-21  -1.59237855512615E-05
      3.79734069595831E-28
      1.67286310046969E-13
      1.50000000000000E+01   1.50000000000000E+01   0.00000000000000E+00   1.07348764700072E-05   5.18718244467931E-06
     -2.22844415522901E-20   1.59220589146864E-05   6.56115441350594E-29   0.00000000000000E+00   0.00000000000000E+00
      0.00000000000000E+00  -6.95591785386874E-07  -1.52264671292996E-05   8.90955730372702E-21  -1.59220589146864E-05
     -1.48642082288276E-28
      2.18472203061060E-13
      1.50000000000000E+01   1.50000000000000E+01   0.00000000000000E+00   1.26626345611017E-05   3.25565779793219E-06
     -7.43102742728556E-22   1.59182923590339E-05  -1.17191120866603E-28   0.00000000000000E+00   0.00000000000000E+00
      0.00000000000000E+00  -8.27031892942218E-07  -1.50912604660917E-05   1.51732033915407E-21  -1.59182923590339E-05
      5.20247288008967E-28
      2.85013863979378E-13
      1.50000000000000E+01   1.50000000000000E+01   0.00000000000000E+00   1.38517818054485E-05   2.05913962760342E-06
     -2.14592518786787E-20   1.59109214330519E-05   4.31700735083333E-28   0.00000000000000E+00   0.00000000000000E+00
      0.00000000000000E+00  -9.19530044163742E-07  -1.49913913888881E-05  -9.43198127706690E-21  -1.59109214330519E-05
      5.03602471502727E-28
      3.71518023173192E-13
      1.50000000000000E+01   1.50000000000000E+01   0.00000000000000E+00   1.42969677023538E-05   1.60135033143926E-06
      3.02425534831389E-23   1.58983180337930E-05   3.57089377372226E-29   0.00000000000000E+00   0.00000000000000E+00
      0.00000000000000E+00  -9.64704584354783E-07  -1.49336134494383E-05   8.47147801049325E-21  -1.58983180337931E-05
      7.06049890869312E-28
      4.83973430125149E-13
      1.50000000000000E+01   1.50000000000000E+01   0.00000000000000E+00   1.43632466556032E-05   1.51618820964053E-06
      9.28014355454034E-21   1.58794348652438E-05   3.93185403865408E-28   0.00000000000000E+00   0.00000000000000E+00
      0.00000000000000E+00  -9.75498851922180E-07  -1.49039360133216E-05   6.74571800174618E-23  -1.58794348652438E-05
     -3.20122401178136E-28
      6.30165459162694E-13
      1.50000000000000E+01   1.50000000000000E+01   0.00000000000000E+00   1.43396812181091E-05   1.51405627991676E-06
     -8.92371345991763E-21   1.58537374980258E-05  -4.02185217441456E-28   0.00000000000000E+00   0.00000000000000E+00
      0.00000000000000E+00  -9.71781859474754E-07  -1.48819556385511E-05  -1.67861835263314E-21  -1.58537374980258E-05
      3.01542140892102E-28
      8.20215096911502E-13
      1.50000000000000E+01   1.50000000000000E+01   0.00000000000000E+00   1.43043163553265E-05   1.51596473097618E-06
      1.90981725246022E-20   1.58202810863027E-05   8.41918044210939E-30   0.00000000000000E+00   0.00000000000000E+00
      0.00000000000000E+00  -9.64615707729456E-07  -1.48556653785732E-05  -3.29126992452586E-21  -1.58202810863027E-05
      5.90697441593514E-28
      1.06727962598495E-12
      1.50000000000000E+01   1.50000000000000E+01   0.00000000000000E+00   1.42592172363352E-05   1.51795138194575E-06
      1.84673992662396E-20   1.57771686182809E-05  -5.39021092672981E-29   0.00000000000000E+00   0.00000000000000E+00
      0.00000000000000E+00  -9.56463098653504E-07  -1.48207055196274E-05  -2.66528113263226E-21  -1.57771686182809E-05
     -4.77667524853471E-28
      1.38846351378044E-12
      1.50000000000000E+01   1.50000000000000E+01   0.00000000000000E+00   1.42013988870926E-05   1.52029422888557E-06
      1.32937624382312E-20   1.57216931159782E-05   1.91802478577711E-28   0.00000000000000E+00   0.00000000000000E+00
      0.00000000000000E+00  -9.47804338112400E-07  -1.47738887778658E-05   2.59807077032947E-21  -1.57216931159782E-05
     -6.38309358576478E-28
      1.80600256791457E-12
      1.50000000000000E+01   1.50000000000000E+01   0.00000000000000E+00   1.41271681907667E-05   1.52317414266306E-06
     -1.87763053482460E-20   1.56503423334297E-05  -4.47861690644624E-28   0.00000000000000E+00   0.00000000000000E+00
      0.00000000000000E+00  -9.39622855580481E-07  -1.47107194778492E-05  -2.61891315512393E-21  -1.56503423334297E-05
      7.35468636322200E-29
      2.34880333828894E-12
      1.50000000000000E+01   1.50000000000000E+01   0.00000000000000E+00   1.40307483059901E-05   1.52773278446197E-06
      1.36966364542744E-20   1.55584810904521E-05  -3.47702475040219E-28   0.00000000000000E+00   0.00000000000000E+00
      0.00000000000000E+00  -9.33794717951836E-07  -1.46246863725002E-05  -1.06808319757466E-20  -1.55584810904521E-05
      2.33414519843309E-28
      3.05444433977562E-12
      1.50000000000000E+01   1.50000000000000E+01   0.00000000000000E+00   1.39094831489172E-05   1.53026776445709E-06
     -1.29070897901254E-21   1.54397509133743E-05   4.34120039808077E-28   0.00000000000000E+00   0.00000000000000E+00
      0.00000000000000E+00  -9.34070255792816E-07  -1.45056806575814E-05   1.23880131501936E-21  -1.54397509133743E-05
      2.64768709075992E-28
      3.97177764170831E-12
      1.50000000000000E+01   1.50000000000000E+01   0.00000000000000E+00   1.37660447965851E-05   1.51888140864090E-06
      1.93789962355171E-20   1.52849262052260E-05  -4.13023702608309E-28   0.00000000000000E+00   0.00000000000000E+00
      0.00000000000000E+00  -9.45194825933188E-07  -1.43397313792929E-05   8.88294423638142E-21  -1.52849262052261E-05
      6.56502530106553E-28
      4.97177764170831E-12
      1.50000000000000E+01   1.50000000000000E+01   0.00000000000000E+00   1.36103245696040E-05   1.50333911955568E-06
      1.27024125085163E-20   1.51136636891597E-05   1.40222901846167E-28   0.00000000000000E+00   0.00000000000000E+00
      0.00000000000000E+00  -9.66443610915017E-07  -1.41472200782446E-05  -3.83885928438491E-21  -1.51136636891597E-05
      1.61416011234925E-27
      5.97177764170831E-12
      1.50000000000000E+01   1.50000000000000E+01   0.00000000000000E+00   1.34495116612391E-05   1.48883503975571E-06
     -1.36701742199767E-20   1.49383467009948E-05   8.83530085476537E-29   0.00000000000000E+00   0.00000000000000E+00
      0.00000000000000E+00  -9.94482745512212E-07  -1.39438639554826E-05   4.94183491242287E-21  -1.49383467009948E-05
      1.21584578246738E-27
      6.97177764170831E-12
      1.50000000000000E+01   1.50000000000000E+01   0.00000000000000E+00   1.32846449349434E-05   1.47332775485116E-06
     -1.04498823196203E-20   1.47579726897945E-05  -1.31803721404057E-28   0.00000000000000E+00   0.00000000000000E+00
      0.00000000000000E+00  -1.02629600413488E-06  -1.37316766856597E-05  -2.76259903701871E-21  -1.47579726897945E-05
      9.81269996356198E-28
      7.97177764170831E-12
      1.50000000000000E+01   1.50000000000000E+01   0.00000000000000E+00   1.31146917193634E-05   1.45737549498269E-06
      7.67350790074858E-21   1.45720672143461E-05   4.55893782330774E-28   0.00000000000000E+00   0.00000000000000E+00
      0.00000000000000E+00  -1.05924065672451E-06  -1.35128265576216E-05   2.90799787604437E-21  -1.45720672143461E-05
      6.56889618862512E-28
      8.97177764170831E-12
      1.50000000000000E+01   1.50000000000000E+01   0.00000000000000E+00   1.29398037959248E-05   1.44074542700230E-06
     -6.04621550283665E-21   1.43805492229271E-05  -5.94665101342094E-28   0.00000000000000E+00   0.00000000000000E+00
      0.00000000000000E+00  -1.09183253865855E-06  -1.32887166842685E-05   4.28297506386254E-21  -1.43805492229270E-05
      7.08372423405066E-28
      9.97177764170831E-12
      1.50000000000000E+01   1.50000000000000E+01   0.00000000000000E+00   1.27600617406866E-05   1.42348294343197E-06
     -2.02915382845909E-20   1.41835446841186E-05   3.00090558057255E-28   0.00000000000000E+00   0.00000000000000E+00
      0.00000000000000E+00  -1.12340070939638E-06  -1.30601439747222E-05  -8.67005235493531E-22  -1.41835446841186E-05
      7.68371180578719E-28
      1.09717776417083E-11
      1.50000000000000E+01   1.50000000000000E+01   0.00000000000000E+00   1.25756951265958E-05   1.40556986942746E-06
      9.45906741169895E-21   1.39812649960232E-05  -5.98439216712695E-28   0.00000000000000E+00   0.00000000000000E+00
      0.00000000000000E+00  -1.15373151491140E-06  -1.28275334811118E-05   4.34989852694144E-24  -1.39812649960232E-05
      1.29829568748666E-27
      1.19717776417083E-11
      1.50000000000000E+01   1.50000000000000E+01   0.00000000000000E+00   1.23869061787161E-05   1.38703974820816E-06
     -6.63311005636881E-22   1.37739459269243E-05   1.64512721282597E-29   0.00000000000000E+00   0.00000000000000E+00
      0.00000000000000E+00  -1.18278812777714E-06  -1.25911577991471E-05   6.52750582733938E-22  -1.37739459269243E-05
      1.27236074083741E-27
      1.29717776417083E-11
      1.50000000000000E+01   1.50000000000000E+01   0.00000000000000E+00   1.21938941887264E-05   1.36792911355233E-06
      8.18374973222694E-21   1.35618233022787E-05   2.63123581863166E-28   0.00000000000000E+00   0.00000000000000E+00
      0.00000000000000E+00  -1.21061531075235E-06  -1.23512079915264E-05  -9.01918339577372E-22  -1.35618233022787E-05
      1.35287520207689E-27
      1.39717776417083E-11
      1.50000000000000E+01   1.50000000000000E+01   0.00000000000000E+00   1.19968437065776E-05   1.34827635689127E-06
      4.78853368742149E-21   1.33451200634689E-05  -3.88443566604909E-28   0.00000000000000E+00   0.00000000000000E+00
      0.00000000000000E+00  -1.23731871904342E-06  -1.21078013444255E-05   2.73189871050922E-21  -1.33451200634689E-05
      1.26500605447418E-27
      1.49717776417083E-11
      1.50000000000000E+01   1.50000000000000E+01   0.00000000000000E+00   1.17959184535525E-05   1.32811738953581E-06
     -1.56013772781143E-20   1.31240358430883E-05  -2.27995277259882E-28   0.00000000000000E+00   0.00000000000000E+00
      0.00000000000000E+00  -1.26305501951411E-06  -1.18609808235742E-05  -1.03466407900818E-21  -1.31240358430883E-05
      1.19920096596114E-27
      1.59717776417083E-11
      1.50000000000000E+01   1.50000000000000E+01   0.00000000000000E+00   1.15912554339329E-05   1.30748464390538E-06
      4.82361133664845E-21   1.28987400778383E-05  -7.53371491285306E-28   0.00000000000000E+00   0.00000000000000E+00
      0.00000000000000E+00  -1.28799931529828E-06  -1.16107407625400E-05   4.94612574346254E-21  -1.28987400778383E-05
      1.04668799611328E-27
      1.69717776417083E-11
      1.50000000000000E+01   1.50000000000000E+01   0.00000000000000E+00   1.13829649102917E-05   1.28640698798710E-06
      1.80487036018200E-21   1.26693718982789E-05  -5.93697379452197E-28   0.00000000000000E+00   0.00000000000000E+00
      0.00000000000000E+00  -1.31230039876715E-06  -1.13570714995117E-05   2.34934180053434E-21  -1.26693718982788E-05
      1.09817080065583E-27
      1.79717776417083E-11
      1.50000000000000E+01   1.50000000000000E+01   0.00000000000000E+00   1.11711385056491E-05   1.26490916645885E-06
     -1.58000465524466E-21   1.24360476721080E-05   2.40188573072592E-28   0.00000000000000E+00   0.00000000000000E+00
      0.00000000000000E+00  -1.33604471076416E-06  -1.11000029613438E-05   7.92580201531119E-22  -1.24360476721080E-05
      1.13378296620406E-27
      1.89717776417083E-11
      1.50000000000000E+01   1.50000000000000E+01   0.00000000000000E+00   1.09558618708472E-05   1.24301149852708E-06
     -3.56149945968791E-21   1.21988733693743E-05  -3.50895957276881E-28   0.00000000000000E+00   0.00000000000000E+00
      0.00000000000000E+00  -1.35924306416734E-06  -1.08396303052069E-05   2.96506972606759E-21  -1.21988733693743E-05
      9.37141878176866E-28
      1.99717776417083E-11
      1.50000000000000E+01   1.50000000000000E+01   0.00000000000000E+00   1.07372277715111E-05   1.22073013212227E-06
     -1.78271583334886E-21   1.19579579036334E-05  -8.82562363586640E-29   0.00000000000000E+00   0.00000000000000E+00
      0.00000000000000E+00  -1.38183834796352E-06  -1.05761195556699E-05   5.56230933246903E-21  -1.19579579036334E-05
      8.00112458567362E-28
      2.09717776417083E-11
      1.50000000000000E+01   1.50000000000000E+01   0.00000000000000E+00   1.05153455124979E-05   1.19807805753939E-06
      1.25374749885223E-21   1.17134235700373E-05  -2.90413339158279E-28   0.00000000000000E+00   0.00000000000000E+00
      0.00000000000000E+00  -1.40372985845833E-06  -1.03096937115790E-05  -5.94124835884851E-21  -1.17134235700373E-05
      1.04436546357752E-27
      2.19717776417083E-11
      1.50000000000000E+01   1.50000000000000E+01   0.00000000000000E+00   1.02903453833293E-05   1.17506662511961E-06
     -2.80824343780796E-21   1.14654120084489E-05  -2.03221596878503E-28   0.00000000000000E+00   0.00000000000000E+00
      0.00000000000000E+00  -1.42480134031854E-06  -1.00406106681303E-05  -4.21945220040800E-21  -1.14654120084489E-05
      8.22563606412987E-28
      2.29717776417083E-11
      1.50000000000000E+01   1.50000000000000E+01   0.00000000000000E+00   1.00623780121366E-05   1.15170715207148E-06
     -5.34385666900691E-21   1.12140851642081E-05   1.20965236237204E-28   0.00000000000000E+00   0.00000000000000E+00
      0.00000000000000E+00  -1.44494436183513E-06  -9.76914080237298E-06  -7.59628981845947E-22  -1.12140851642081E-05
      7.28888127470896E-28
      2.39717776417083E-11
      1.50000000000000E+01   1.50000000000000E+01   0.00000000000000E+00   9.83161051671272E-06   1.12801222206370E-06
      4.35409442809085E-21   1.09596227387764E-05  -4.58506631433498E-28   0.00000000000000E+00   0.00000000000000E+00
      0.00000000000000E+00  -1.46407371174064E-06  -9.49554902703579E-06  -3.80462545640469E-21  -1.09596227387764E-05
      9.49141629611597E-28
      2.49717776417083E-11
      1.50000000000000E+01   1.50000000000000E+01   0.00000000000000E+00   9.59822085008119E-06   1.10399647149463E-06
     -1.27015138388885E-21   1.07022173215758E-05   1.58996706510181E-28   0.00000000000000E+00   0.00000000000000E+00
      0.00000000000000E+00  -1.48213367665495E-06  -9.22008364492085E-06  -1.80198238196503E-21  -1.07022173215758E-05
      8.36111712871554E-28
      2.59717776417083E-11
      1.50000000000000E+01   1.50000000000000E+01   0.00000000000000E+00   9.36239234196615E-06   1.07967678923207E-06
     -3.53660673290910E-21   1.04420691311982E-05  -2.63220354052156E-29   0.00000000000000E+00   0.00000000000000E+00
      0.00000000000000E+00  -1.49909623764534E-06  -8.94297289355286E-06  -2.62826902319716E-21  -1.04420691311982E-05
      9.28238836789808E-28
      2.69717776417083E-11
      1.50000000000000E+01   1.50000000000000E+01   0.00000000000000E+00   9.12430915151254E-06   1.05507204728180E-06
     -7.36182353728735E-22   1.01793811987943E-05  -5.95923139798961E-28   0.00000000000000E+00   0.00000000000000E+00
      0.00000000000000E+00  -1.51495463606370E-06  -8.66442656273065E-06  -1.44953934273317E-21  -1.01793811987943E-05
      9.42948209516252E-28
      2.79717776417083E-11
      1.50000000000000E+01   1.50000000000000E+01   0.00000000000000E+00   8.88415354750150E-06   1.03020251064709E-06
     -1.03625995594107E-21   9.91435605814859E-06   1.10417067637320E-28   0.00000000000000E+00   0.00000000000000E+00
      0.00000000000000E+00  -1.52971386484728E-06  -8.38464219330130E-06  -1.39903453156270E-22  -9.91435605814858E-06
      6.75082790392588E-28
      2.89717776417083E-11
      1.50000000000000E+01   1.50000000000000E+01   0.00000000000000E+00   8.64210468316183E-06   1.00508914985275E-06
     -5.79283285886575E-22   9.64719383301457E-06  -2.21414768408578E-28   0.00000000000000E+00   0.00000000000000E+00
      0.00000000000000E+00  -1.54338100457197E-06  -8.10381282844260E-06   9.50524552942677E-22  -9.64719383301457E-06
      1.07881636285788E-27
      2.99717776417083E-11
      1.50000000000000E+01   1.50000000000000E+01   0.00000000000000E+00   8.39833906066401E-06   9.79753018502463E-07
      1.18430206502214E-21   9.37809207916647E-06   2.25866289102107E-28   0.00000000000000E+00   0.00000000000000E+00
      0.00000000000000E+00  -1.55595735635795E-06  -7.82213472280853E-06   1.48729296008885E-21  -9.37809207916647E-06
      1.05559103750034E-27
      3.09717776417083E-11
      1.50000000000000E+01   1.50000000000000E+01   0.00000000000000E+00   8.15303184976493E-06   9.54214831236386E-07
      2.13181206656084E-21   9.10724668100131E-06  -6.29599861567399E-28   0.00000000000000E+00   0.00000000000000E+00
      0.00000000000000E+00  -1.56743061448751E-06  -7.53981606651380E-06  -7.77813329713180E-22  -9.10724668100131E-06
      9.81657085112157E-28
      3.19717776417083E-11
      1.50000000000000E+01   1.50000000000000E+01   0.00000000000000E+00   7.90635913788893E-06   9.28494758156842E-07
     -5.26474842712509E-22   8.83485389604577E-06   1.34610114884761E-28   0.00000000000000E+00   0.00000000000000E+00
      0.00000000000000E+00  -1.57777060787253E-06  -7.25708328817325E-06   2.66267372497984E-21  -8.83485389604578E-06
      1.62461150876014E-27
      3.29717776417083E-11
      1.50000000000000E+01   1.50000000000000E+01   0.00000000000000E+00   7.65850046399249E-06   9.02612440189031E-07
     -2.91670400175761E-21   8.56111290418152E-06  -1.35384292396679E-28   0.00000000000000E+00   0.00000000000000E+00
      0.00000000000000E+00  -1.58692609729665E-06  -6.97418680688487E-06   3.90257833627931E-21  -8.56111290418151E-06
      1.04204293104177E-27
      3.39717776417083E-11
      1.50000000000000E+01   1.50000000000000E+01   0.00000000000000E+00   7.40964174641894E-06   8.76587152400088E-07
      3.17194094291821E-21   8.28622889881903E-06   3.97056291424998E-28   0.00000000000000E+00   0.00000000000000E+00
      0.00000000000000E+00  -1.59482278290170E-06  -6.69140611591734E-06  -1.56245106375936E-22  -8.28622889881904E-06
      1.22126502505081E-27
      3.49717776417083E-11
      1.50000000000000E+01   1.50000000000000E+01   0.00000000000000E+00   7.15997821083827E-06   8.50438088795583E-07
      9.36013991828435E-22   8.01041629963385E-06  -6.13535678195098E-29   0.00000000000000E+00   0.00000000000000E+00
      0.00000000000000E+00  -1.60136153671436E-06  -6.40905476291948E-06  -4.44178749638168E-21  -8.01041629963385E-06
      1.32926278796339E-27
      3.59717776417083E-11
      1.50000000000000E+01   1.50000000000000E+01   0.00000000000000E+00   6.90971769524000E-06   8.24184700262266E-07
     -8.69276169423818E-22   7.73390239550226E-06  -3.06283978152600E-28   0.00000000000000E+00   0.00000000000000E+00
      0.00000000000000E+00  -1.60641924370703E-06  -6.12748315179523E-06   2.77865801012072E-21  -7.73390239550226E-06
      9.18948706646791E-28
      3.69717776417083E-11
      1.50000000000000E+01   1.50000000000000E+01   0.00000000000000E+00   6.65908387215669E-06   7.97847058670894E-07
     -5.10095217536739E-22   7.45693093082758E-06   2.18705147116865E-29   0.00000000000000E+00   0.00000000000000E+00
      0.00000000000000E+00  -1.60984821917035E-06  -5.84708271165723E-06  -1.12462808122929E-21  -7.45693093082758E-06
      9.15464907843159E-28
      3.79717776417083E-11
      1.50000000000000E+01   1.50000000000000E+01   0.00000000000000E+00   6.40831986616542E-06   7.71446221344749E-07
      2.57250298655327E-21   7.17976608751017E-06  -1.55125818950590E-28   0.00000000000000E+00   0.00000000000000E+00
      0.00000000000000E+00  -1.61147670203927E-06  -5.56828938547089E-06   1.35030490934006E-21  -7.17976608751016E-06
      1.43803472838788E-27
      3.89717776417083E-11
      1.50000000000000E+01   1.50000000000000E+01   0.00000000000000E+00   6.15769175463326E-06   7.45004591467690E-07
     -6.03964002577143E-22   6.90269634610095E-06   3.02219546215030E-28   0.00000000000000E+00   0.00000000000000E+00
      0.00000000000000E+00  -1.61111240672938E-06  -5.29158393937157E-06   2.05780314195073E-21  -6.90269634610094E-06
      1.25881263437884E-27
      3.99717776417083E-11
      1.50000000000000E+01   1.50000000000000E+01   0.00000000000000E+00   5.90749216567730E-06   7.18546238177872E-07
     -1.53213784024681E-21   6.62603840385517E-06  -1.23868401906897E-29   0.00000000000000E+00   0.00000000000000E+00
      0.00000000000000E+00  -1.60854418034592E-06  -5.01749422350926E-06   5.86451019989347E-22  -6.62603840385518E-06
      1.29636024370687E-27
      4.09717776417083E-11
      1.50000000000000E+01   1.50000000000000E+01   0.00000000000000E+00   5.65804342137202E-06   6.92097208686432E-07
     -3.84575752307700E-22   6.35014063005845E-06   2.40769206206531E-28   0.00000000000000E+00   0.00000000000000E+00
      0.00000000000000E+00  -1.60354823634602E-06  -4.74659239371243E-06  -2.05445501746015E-21  -6.35014063005845E-06
      1.16087917912120E-27
      4.19717776417083E-11
      1.50000000000000E+01   1.50000000000000E+01   0.00000000000000E+00   5.40970022915063E-06   6.65685800458557E-07
      2.36192950398258E-22   6.07538602960919E-06  -2.12124638265561E-28   0.00000000000000E+00   0.00000000000000E+00
      0.00000000000000E+00  -1.59589421160042E-06  -4.47949181800877E-06  -7.23895129752581E-22  -6.07538602960919E-06
      9.48754540855638E-28
      4.29717776417083E-11
      1.50000000000000E+01   1.50000000000000E+01   0.00000000000000E+00   5.16285128980281E-06   6.39342806662174E-07
     -1.16254835328120E-21   5.80219409646498E-06   2.15027803935254E-28   0.00000000000000E+00   0.00000000000000E+00
      0.00000000000000E+00  -1.58535390817196E-06  -4.21684018829302E-06  -2.26099496854789E-22  -5.80219409646498E-06
      8.47724375550325E-28
      4.39717776417083E-11
      1.50000000000000E+01   1.50000000000000E+01   0.00000000000000E+00   4.91791971911787E-06   6.13101724616132E-07
     -2.62683558185426E-21   5.53102144373400E-06  -1.01126937494302E-28   0.00000000000000E+00   0.00000000000000E+00
      0.00000000000000E+00  -1.57171088087022E-06  -3.95931056286376E-06  -2.03181529341013E-21  -5.53102144373399E-06
      1.16900804299634E-27
      4.49717776417084E-11
      1.50000000000000E+01   1.50000000000000E+01   0.00000000000000E+00   4.67536188052136E-06   5.86998923057537E-07
     -1.00326970952324E-21   5.26236080357890E-06   1.78254372119144E-28   0.00000000000000E+00   0.00000000000000E+00
      0.00000000000000E+00  -1.55477056249561E-06  -3.70759024108329E-06   3.02286304325677E-22  -5.26236080357891E-06
      8.02822079859075E-28
      4.59717776417084E-11
      1.50000000000000E+01   1.50000000000000E+01   0.00000000000000E+00   4.43566450106591E-06   5.61073721835045E-07
      4.77430897075458E-22   4.99673822290095E-06  -2.34091925166237E-28   0.00000000000000E+00   0.00000000000000E+00
      0.00000000000000E+00  -1.53437156604094E-06  -3.46236665686001E-06   8.04362583076996E-22  -4.99673822290095E-06
      8.52369440621834E-28
      4.69717776417084E-11
      1.50000000000000E+01   1.50000000000000E+01   0.00000000000000E+00   4.19934004241261E-06   5.35368395717524E-07
     -1.79225523254325E-22   4.73470843813014E-06   1.43803472838788E-28   0.00000000000000E+00   0.00000000000000E+00
      0.00000000000000E+00  -1.51039534970253E-06  -3.22431308842760E-06  -1.42506061575354E-21  -4.73470843813013E-06
      1.17520146309168E-27
      4.79717776417084E-11
      1.50000000000000E+01   1.50000000000000E+01   0.00000000000000E+00   3.96692022764791E-06   5.09928050718880E-07
     -1.59074860926877E-21   4.47684827836679E-06  -1.55222591139580E-28   0.00000000000000E+00   0.00000000000000E+00
      0.00000000000000E+00  -1.48277474840759E-06  -2.99407352995919E-06  -1.13984824327321E-21  -4.47684827836678E-06
      1.69041659727318E-27
      4.89717776417084E-11