DF-ISE text

Info {
  version   = 1.0
  type      = xyplot
  datasets  = [
    "time"
    "ntype OuterVoltage" "ntype InnerVoltage" "ntype QuasiFermiPotential" "ntype DisplacementCurrent" "ntype eCurrent"
    "ntype hCurrent" "ntype TotalCurrent" "ntype Charge" "ptype OuterVoltage" "ptype InnerVoltage"
    "ptype QuasiFermiPotential" "ptype DisplacementCurrent" "ptype eCurrent" "ptype hCurrent" "ptype TotalCurrent"
    "ptype Charge" ]
  functions = [
    Time
    OuterVoltage InnerVoltage QuasiFermiPotential DisplacementCurrent eCurrent
    hCurrent TotalCurrent Charge OuterVoltage InnerVoltage
    QuasiFermiPotential DisplacementCurrent eCurrent hCurrent TotalCurrent
    Charge ]
}

Data {
      1.00000000000000E-15
      0.00000000000000E+00   0.00000000000000E+00   0.00000000000000E+00  -8.19189372384343E-12   8.19189488588733E-12
      9.94078984245557E-28   1.16204389373482E-18   1.01126937494302E-29   0.00000000000000E+00   0.00000000000000E+00
      0.00000000000000E+00  -1.75738171753965E-09   1.75738171637761E-09  -2.32779349416749E-25  -1.16204392959722E-18
     -2.85865046275760E-28
      2.30000000000000E-15
      0.00000000000000E+00   0.00000000000000E+00   0.00000000000000E+00  -7.94757103819450E-12   7.94757426488027E-12
      3.79074411497680E-28   3.22668576704854E-18  -2.70962129171337E-29   0.00000000000000E+00   0.00000000000000E+00
      0.00000000000000E+00  -1.19904908989895E-09   1.19904908667227E-09   2.14612007761410E-26  -3.22668569848807E-18
     -1.08191307290555E-28
      3.99000000000000E-15
      0.00000000000000E+00   0.00000000000000E+00   0.00000000000000E+00  -8.05733517407784E-12   8.05734079727829E-12
     -6.95736313480756E-28   5.62320045035683E-18   4.31362032421869E-29   0.00000000000000E+00   0.00000000000000E+00
      0.00000000000000E+00  -8.48900930414826E-10   8.48900924791626E-10  -3.74934954476191E-25  -5.62320055583449E-18
      3.41992915889823E-28
      6.18700000000000E-15
      0.00000000000000E+00   0.00000000000000E+00   0.00000000000000E+00  -7.32318755497840E-12   7.32319583484606E-12
     -2.45795937951446E-28   8.27986765582222E-18  -1.22900680016999E-29   0.00000000000000E+00   0.00000000000000E+00
      0.00000000000000E+00  -3.99801940398189E-10   3.99801932118322E-10  -8.91017733723398E-26  -8.27986762892542E-18
      2.12511727021520E-28
      9.04310000000000E-15
      0.00000000000000E+00   0.00000000000000E+00   0.00000000000000E+00  -6.87652961847431E-12   6.87654047705191E-12
     -2.14424846275706E-28   1.08585775929048E-17   3.33864052014683E-29   0.00000000000000E+00   0.00000000000000E+00
      0.00000000000000E+00  -1.81344169652511E-10   1.81344158793934E-10   1.23070999219262E-25  -1.08585775625800E-17
      2.83929602495965E-28
      1.27560300000000E-14
      0.00000000000000E+00   0.00000000000000E+00   0.00000000000000E+00  -6.95052494513707E-12   6.95053830515302E-12
     -1.02652561431522E-28   1.33600159547051E-17   4.80957779279123E-29   0.00000000000000E+00   0.00000000000000E+00
      0.00000000000000E+00  -1.71102983555086E-10   1.71102970195070E-10   1.76729666463395E-25  -1.33600159586605E-17
      3.74701915768363E-28
      1.75828390000000E-14
      0.00000000000000E+00   0.00000000000000E+00   0.00000000000000E+00  -6.97839331506938E-12   6.97840919472374E-12
      9.60739750920643E-29   1.58796543593160E-17  -7.87483687904197E-29   0.00000000000000E+00   0.00000000000000E+00
      0.00000000000000E+00  -1.72539193835168E-10   1.72539177955514E-10  -5.68116663118445E-26  -1.58796543391764E-17
     -5.20634376764926E-29
      2.38576907000000E-14
      0.00000000000000E+00   0.00000000000000E+00   0.00000000000000E+00  -6.11804672541158E-12   6.11806461884874E-12
     -8.79040979078608E-29   1.78934371578428E-17   2.35156419245124E-29   0.00000000000000E+00   0.00000000000000E+00
      0.00000000000000E+00  -3.44444894695477E-11   3.44444715761106E-11  -3.58021447553022E-26  -1.78934371524700E-17
     -3.98701418637824E-29
      3.20149979100000E-14
      0.00000000000000E+00   0.00000000000000E+00   0.00000000000000E+00  -4.95976842419727E-12   4.95978671379699E-12
     -4.76665068032385E-29   1.82895997135766E-17  -2.64430006414528E-29   0.00000000000000E+00   0.00000000000000E+00
      0.00000000000000E+00   2.98954728458985E-11  -2.98954911354981E-11  -1.02908311821015E-25  -1.82895997122910E-17
     -5.50633755351752E-28
      4.20149979100000E-14
      0.00000000000000E+00   0.00000000000000E+00   0.00000000000000E+00  -3.49577199266571E-12   3.49578872897032E-12
     -3.18570549652486E-29   1.67363046119235E-17  -1.13126688929033E-28   0.00000000000000E+00   0.00000000000000E+00
      0.00000000000000E+00   8.34867476681772E-11  -8.34867644044818E-11  -1.12147263475035E-28  -1.67363046343375E-17
     -2.33220975465329E-28
      5.20149979100000E-14
      0.00000000000000E+00   0.00000000000000E+00   0.00000000000000E+00  -2.26771783138116E-12   2.26773174518065E-12
      1.32839424406863E-28   1.39137994827838E-17   1.16126626787716E-30   0.00000000000000E+00   0.00000000000000E+00
      0.00000000000000E+00   7.85784088220664E-11  -7.85784227358659E-11   2.97164496828022E-26  -1.39137994677532E-17
      6.58050885130389E-29
      6.20149979100000E-14
      0.00000000000000E+00   0.00000000000000E+00   0.00000000000000E+00  -1.24451951149037E-12   1.24453033020165E-12
      2.15553332411719E-29   1.08187112811759E-17  -2.22576034676455E-30   0.00000000000000E+00   0.00000000000000E+00
      0.00000000000000E+00   1.03799667058616E-10  -1.03799677877327E-10   1.83285452992781E-28  -1.08187112781434E-17
     -2.92252010749085E-28
      7.20149979100000E-14
      0.00000000000000E+00   0.00000000000000E+00   0.00000000000000E+00  -3.84579280084889E-13   3.84587092126249E-13
     -1.41085136524087E-29   7.81204136079997E-18   3.25880346423027E-29   0.00000000000000E+00   0.00000000000000E+00
      0.00000000000000E+00   1.00724929542765E-10  -1.00724937354806E-10   1.20821616104556E-26  -7.81204134181399E-18
     -4.16507501411941E-28
      8.20149979100000E-14
      0.00000000000000E+00   0.00000000000000E+00   0.00000000000000E+00   2.74184590518847E-13  -2.74179447353657E-13
     -6.88177301112045E-30   5.14316519037333E-18  -1.21691027654627E-29   0.00000000000000E+00   0.00000000000000E+00
      0.00000000000000E+00   1.03488140327347E-10  -1.03488145470512E-10   5.56513090920546E-27  -5.14316519498798E-18
      5.86439465277965E-29
      9.20149979100000E-14
      0.00000000000000E+00   0.00000000000000E+00   0.00000000000000E+00   8.95418739343732E-13  -8.95415957409390E-13
      3.58674176026767E-30   2.78193434229963E-18  -1.90157351364885E-29   0.00000000000000E+00   0.00000000000000E+00
      0.00000000000000E+00   1.13376544590855E-10  -1.13376547372790E-10  -2.59733577235797E-26  -2.78193434520026E-18
      7.56758517899948E-29
      1.02014997910000E-13
      0.00000000000000E+00   0.00000000000000E+00   0.00000000000000E+00   1.42762477636127E-12  -1.42762410732374E-12
     -1.51610408007923E-29   6.69037532340649E-19  -1.27497358994013E-29   0.00000000000000E+00   0.00000000000000E+00
      0.00000000000000E+00   1.13348312062293E-10  -1.13348312731330E-10  -5.37008995086794E-26  -6.69037524825366E-19
     -6.03858459296122E-28
      1.12014997910000E-13
      0.00000000000000E+00   0.00000000000000E+00   0.00000000000000E+00   1.82832208316367E-12  -1.82832327302139E-12
     -1.99880760036743E-29  -1.18985772095593E-18  -6.07487416383238E-29   0.00000000000000E+00   0.00000000000000E+00
      0.00000000000000E+00   1.10156143627543E-10  -1.10156142437685E-10   1.42137321579059E-26   1.18985772220848E-18
     -6.50696198767167E-28
      1.22014997910000E-13
      0.00000000000000E+00   0.00000000000000E+00   0.00000000000000E+00   2.18243570742010E-12  -2.18243844420651E-12
     -2.87118637221864E-29  -2.73678640954217E-18  -5.50875685824227E-29   0.00000000000000E+00   0.00000000000000E+00
      0.00000000000000E+00   1.19312449212433E-10  -1.19312446475647E-10  -2.65651244548441E-26   2.73678639965364E-18
     -9.30948458081521E-29
      1.32014997910000E-13
      0.00000000000000E+00   0.00000000000000E+00   0.00000000000000E+00   2.46409843763918E-12  -2.46410250136193E-12
     -7.36586522369394E-29  -4.06372274502143E-18  -2.70236337753914E-29   0.00000000000000E+00   0.00000000000000E+00
      0.00000000000000E+00   1.18446808274596E-10  -1.18446804210873E-10  -4.74301807649812E-26   4.06372274558178E-18
     -7.12823944098595E-28
      1.42014997910000E-13
      0.00000000000000E+00   0.00000000000000E+00   0.00000000000000E+00   2.73007972802039E-12  -2.73008496111693E-12
      4.46080121286864E-29  -5.23309654046984E-18   9.58044670998655E-30   0.00000000000000E+00   0.00000000000000E+00
      0.00000000000000E+00   1.21780520025040E-10  -1.21780514791944E-10  -6.23148651501757E-26   5.23309653529484E-18
     -2.01286153098707E-28
      1.52014997910000E-13
      0.00000000000000E+00   0.00000000000000E+00   0.00000000000000E+00   2.95185224336206E-12  -2.95185852294994E-12
      1.06936373351543E-28  -6.27958787807474E-18  -3.12090309491986E-29   0.00000000000000E+00   0.00000000000000E+00
      0.00000000000000E+00   1.40100891023275E-10  -1.40100884743688E-10  -1.61311799738304E-26   6.27958787049353E-18
     -5.78504145780804E-28
      1.62014997910000E-13
      0.00000000000000E+00   0.00000000000000E+00   0.00000000000000E+00   3.09977698693899E-12  -3.09978418461250E-12
     -1.77710361981945E-29  -7.19767351063725E-18  -3.85395242651732E-29   0.00000000000000E+00   0.00000000000000E+00
      0.00000000000000E+00   1.32572688397270E-10  -1.32572681199597E-10   3.61502390455487E-26   7.19767350279234E-18
     -4.91215631312038E-28
      1.72014997910000E-13
      0.00000000000000E+00   0.00000000000000E+00   0.00000000000000E+00   3.21000962158929E-12  -3.21001753352052E-12
      7.67974687565596E-29  -7.91193123471973E-18  -3.04348534372805E-29   0.00000000000000E+00   0.00000000000000E+00
      0.00000000000000E+00   1.29648963105977E-10  -1.29648955194045E-10  -4.96674406124350E-26   7.91193124266352E-18
      2.05350585036277E-28
      1.82014997910000E-13
      0.00000000000000E+00   0.00000000000000E+00   0.00000000000000E+00   3.32115665042480E-12  -3.32116520602304E-12
      1.60822138486838E-28  -8.55559823922384E-18  -1.97415265539117E-29   0.00000000000000E+00   0.00000000000000E+00
      0.00000000000000E+00   1.29809931519371E-10  -1.29809922963773E-10  -9.31884531301652E-27   8.55559824284964E-18
     -4.15152690766084E-28
      1.92014997910000E-13
      0.00000000000000E+00   0.00000000000000E+00   0.00000000000000E+00   3.40476226199119E-12  -3.40477131608048E-12
      2.36060044284968E-29  -9.05408928340597E-18  -2.43382055309254E-29   0.00000000000000E+00   0.00000000000000E+00
      0.00000000000000E+00   1.42918241538080E-10  -1.42918232483991E-10   3.66827132224730E-26   9.05408927684658E-18
     -3.04832395317754E-28
      2.02014997910000E-13
      0.00000000000000E+00   0.00000000000000E+00   0.00000000000000E+00   3.45652227330109E-12  -3.45653184676098E-12
      8.38273126513706E-29  -9.57345989292662E-18  -5.91278074727453E-29   0.00000000000000E+00   0.00000000000000E+00
      0.00000000000000E+00   1.38368684196791E-10  -1.38368674623331E-10  -3.51442613537801E-26   9.57345988719128E-18
     -4.13797880120227E-28
      2.12014997910000E-13
      0.00000000000000E+00   0.00000000000000E+00   0.00000000000000E+00   3.49115860035821E-12  -3.49116859844045E-12
      7.95299486296232E-29  -9.99808224438284E-18   4.49022956912501E-29   0.00000000000000E+00   0.00000000000000E+00
      0.00000000000000E+00   1.33219468286259E-10  -1.33219458288177E-10  -2.94853310399345E-28   9.99808224517393E-18
      3.67927862539079E-28
      2.22014997910000E-13
      0.00000000000000E+00   0.00000000000000E+00   0.00000000000000E+00   3.53464221450261E-12  -3.53465256624584E-12
      1.60651135230459E-28  -1.03517432290306E-17  -1.36206856003092E-29   0.00000000000000E+00   0.00000000000000E+00
      0.00000000000000E+00   1.35898724708406E-10  -1.35898714356663E-10  -5.07343565327243E-26   1.03517432257015E-17
     -5.70568826283643E-28
      2.32014997910000E-13
      0.00000000000000E+00   0.00000000000000E+00   0.00000000000000E+00   3.55002647634260E-12  -3.55003712463560E-12
      5.40266712829941E-29  -1.06482930011080E-17   1.28707011356385E-29   0.00000000000000E+00   0.00000000000000E+00
      0.00000000000000E+00   1.41140647757334E-10  -1.41140637109041E-10   1.10523638914277E-26   1.06482930003828E-17
     -3.49928235386984E-28
      2.42014997910000E-13
      0.00000000000000E+00   0.00000000000000E+00   0.00000000000000E+00   3.58462479149932E-12  -3.58463575258947E-12
      2.33925288112924E-28  -1.09610901445432E-17  -2.74591086258453E-29   0.00000000000000E+00   0.00000000000000E+00
      0.00000000000000E+00   1.41687598332184E-10  -1.41687587371093E-10   3.36304020537713E-26   1.09610901436202E-17
     -3.48960513497086E-28
      2.52014997910000E-13
      0.00000000000000E+00   0.00000000000000E+00   0.00000000000000E+00   3.53617416123696E-12  -3.53618538229527E-12
     -1.82903191578551E-28  -1.12210583083706E-17  -4.11281803206493E-31   0.00000000000000E+00   0.00000000000000E+00
      0.00000000000000E+00   1.24334289317417E-10  -1.24334278096358E-10  -1.35865089941738E-26   1.12210583042339E-17
     -1.55996768651498E-28
      2.62014997910000E-13
      0.00000000000000E+00   0.00000000000000E+00   0.00000000000000E+00   3.51737343375070E-12  -3.51738479380281E-12
     -1.19378007904108E-28  -1.13600521046872E-17  -4.80473918334174E-29   0.00000000000000E+00   0.00000000000000E+00
      0.00000000000000E+00   1.31450925576018E-10  -1.31450914215966E-10  -1.95812212193109E-26   1.13600521014405E-17
      1.31610177026078E-28
      2.72014997910000E-13
      0.00000000000000E+00   0.00000000000000E+00   0.00000000000000E+00   3.54302000193247E-12  -3.54303153382157E-12
     -1.55955716762832E-29  -1.15318890981210E-17  -3.85637173124206E-29   0.00000000000000E+00   0.00000000000000E+00
      0.00000000000000E+00   1.44300266998978E-10  -1.44300255467089E-10  -1.78522735109955E-26   1.15318891005602E-17
      2.02253874988605E-28
      2.82014997910000E-13
      0.00000000000000E+00   0.00000000000000E+00   0.00000000000000E+00   3.56819830757773E-12  -3.56821012091451E-12
      2.01033538009982E-28  -1.18133367781284E-17  -6.71840922061431E-29   0.00000000000000E+00   0.00000000000000E+00
      0.00000000000000E+00   1.42911063562748E-10  -1.42911051749411E-10   1.62797091100215E-26   1.18133367715361E-17
     -1.97415265539117E-29
      2.92014997910000E-13
      0.00000000000000E+00   0.00000000000000E+00   0.00000000000000E+00   3.52801327670439E-12  -3.52802530011339E-12
     -1.14899508469890E-28  -1.20234089933022E-17   5.77971898741360E-29   0.00000000000000E+00   0.00000000000000E+00
      0.00000000000000E+00   1.36328824814937E-10  -1.36328812791528E-10  -4.64910922848949E-26   1.20234089911926E-17
      1.95673366137301E-28
      3.02014997910000E-13
      0.00000000000000E+00   0.00000000000000E+00   0.00000000000000E+00   3.48648160417853E-12  -3.48649373230744E-12
     -3.77699243713076E-29  -1.21281289037300E-17  -1.18304001039985E-29   0.00000000000000E+00   0.00000000000000E+00
      0.00000000000000E+00   1.31741558052194E-10  -1.31741545924065E-10  -4.44417330207153E-26   1.21281289018841E-17
     -7.53661807852275E-28
      3.12014997910000E-13
      0.00000000000000E+00   0.00000000000000E+00   0.00000000000000E+00   3.50208655854526E-12  -3.50209881481005E-12
      1.43694824242727E-28  -1.22562647900067E-17  -2.46043290506473E-29   0.00000000000000E+00   0.00000000000000E+00
      0.00000000000000E+00   1.41859532691130E-10  -1.41859520434865E-10   1.77130872976585E-26   1.22562647939292E-17
     -2.27995277259882E-28
      3.22014997910000E-13
      0.00000000000000E+00   0.00000000000000E+00   0.00000000000000E+00   3.50887036484633E-12  -3.50888287280823E-12
      4.50648312878979E-29  -1.25079619030150E-17   3.96765974858029E-30   0.00000000000000E+00   0.00000000000000E+00
      0.00000000000000E+00   1.35950524852478E-10  -1.35950512344516E-10  -5.82756966899649E-27   1.25079618987300E-17
      2.03995774390421E-28
      3.32014997910000E-13
      0.00000000000000E+00   0.00000000000000E+00   0.00000000000000E+00   3.48528188662950E-12  -3.48529455765130E-12
      5.31895474638984E-31  -1.26710218076101E-17   5.36117927003288E-29   0.00000000000000E+00   0.00000000000000E+00
      0.00000000000000E+00   1.41410448379230E-10  -1.41410435708208E-10   9.78815135278707E-26   1.26710218157187E-17
      2.65349342209931E-28
      3.42014997910000E-13
      0.00000000000000E+00   0.00000000000000E+00   0.00000000000000E+00   3.46182078809578E-12  -3.46183360370505E-12
      1.62375561866422E-28  -1.28156092684371E-17  -7.11275589074759E-30   0.00000000000000E+00   0.00000000000000E+00
      0.00000000000000E+00   1.41493350842412E-10  -1.41493338026803E-10  -2.46311957551942E-27   1.28156092715026E-17
     -1.33545620805873E-29
      3.52014997910000E-13
      0.00000000000000E+00   0.00000000000000E+00   0.00000000000000E+00   3.42669270154773E-12  -3.42670564745651E-12
      2.85907841077045E-29  -1.29459087875104E-17  -7.37404080101995E-29   0.00000000000000E+00   0.00000000000000E+00
      0.00000000000000E+00   1.35888964415912E-10  -1.35888951470003E-10  -4.22005903478721E-26   1.29459087874775E-17
      8.39982600431144E-29
