DF-ISE text

Info {
  version   = 1.0
  type      = xyplot
  datasets  = [
    "time"
    "gate OuterVoltage" "gate InnerVoltage" "gate QuasiFermiPotential" "gate DisplacementCurrent" "gate eCurrent"
    "gate hCurrent" "gate TotalCurrent" "gate MCTotalCurrent" "gate MCTotalCurrentError" "gate Charge"
    "source OuterVoltage" "source InnerVoltage" "source QuasiFermiPotential" "source DisplacementCurrent" "source eCurrent"
    "source hCurrent" "source TotalCurrent" "source MCTotalCurrent" "source MCTotalCurrentError" "source Charge"
    "drain OuterVoltage" "drain InnerVoltage" "drain QuasiFermiPotential" "drain DisplacementCurrent" "drain eCurrent"
    "drain hCurrent" "drain TotalCurrent" "drain MCTotalCurrent" "drain MCTotalCurrentError" "drain Charge" ]
  functions = [
    Time
    OuterVoltage InnerVoltage QuasiFermiPotential DisplacementCurrent eCurrent
    hCurrent TotalCurrent MCTotalCurrent MCTotalCurrentError Charge
    OuterVoltage InnerVoltage QuasiFermiPotential DisplacementCurrent eCurrent
    hCurrent TotalCurrent MCTotalCurrent MCTotalCurrentError Charge
    OuterVoltage InnerVoltage QuasiFermiPotential DisplacementCurrent eCurrent
    hCurrent TotalCurrent MCTotalCurrent MCTotalCurrentError Charge ]
}

Data {
      0.00000000000000E+00
      7.80000000000000E-01   7.80000000000000E-01   0.00000000000000E+00   0.00000000000000E+00   0.00000000000000E+00
      0.00000000000000E+00   0.00000000000000E+00   0.00000000000000E+00   0.00000000000000E+00   3.78932892466482E-16
      0.00000000000000E+00   0.00000000000000E+00   0.00000000000000E+00   0.00000000000000E+00  -2.51453954594090E-03
      8.69402234594821E-22  -2.51453954594090E-03   0.00000000000000E+00   0.00000000000000E+00  -1.56573354102136E-16
      7.80000000000000E-01   7.80000000000000E-01   0.00000000000000E+00   0.00000000000000E+00   3.13591913506603E-03
     -1.93149278511962E-26   3.13591913506603E-03   0.00000000000000E+00   0.00000000000000E+00   1.26098369969358E-16
      0.00000000000000E+00
      7.80000000000000E-01   7.80000000000000E-01   0.00000000000000E+00   0.00000000000000E+00   0.00000000000000E+00
      0.00000000000000E+00   0.00000000000000E+00   0.00000000000000E+00   0.00000000000000E+00   3.78932892466482E-16
      0.00000000000000E+00   0.00000000000000E+00   0.00000000000000E+00   0.00000000000000E+00  -8.75751269648203E-91
      8.75751269648202E-91 -1.13865351831424E-105   0.00000000000000E+00   0.00000000000000E+00  -1.56573354102136E-16
      7.80000000000000E-01   7.80000000000000E-01   0.00000000000000E+00   0.00000000000000E+00   8.75751269648400E-91
     -8.75751269648403E-91 -2.61890309212274E-105   0.00000000000000E+00   0.00000000000000E+00   1.26098369969358E-16
      1.20000000000000E-08
      7.80000000000000E-01   7.80000000000000E-01   0.00000000000000E+00   0.00000000000000E+00   0.00000000000000E+00
      0.00000000000000E+00   0.00000000000000E+00   0.00000000000000E+00   0.00000000000000E+00   3.64203192884309E-16
      0.00000000000000E+00   0.00000000000000E+00   0.00000000000000E+00   0.00000000000000E+00  -1.85046479906262E-03
      8.75751269648201E-91  -1.85046479906262E-03   0.00000000000000E+00   0.00000000000000E+00  -1.57852442257829E-16
      7.80000000000000E-01   7.80000000000000E-01   0.00000000000000E+00   0.00000000000000E+00   1.85046479906264E-03
     -8.75751269648400E-91   1.85046479906264E-03   0.00000000000000E+00   0.00000000000000E+00   1.28767487417326E-16
      2.40000000000000E-08
      7.80000000000000E-01   7.80000000000000E-01   0.00000000000000E+00   0.00000000000000E+00   0.00000000000000E+00
      0.00000000000000E+00   0.00000000000000E+00   0.00000000000000E+00   0.00000000000000E+00   3.53379805313693E-16
      0.00000000000000E+00   0.00000000000000E+00   0.00000000000000E+00   0.00000000000000E+00  -1.75044691876950E-03
      8.75751269648201E-91  -1.75044691876950E-03   0.00000000000000E+00   0.00000000000000E+00  -1.57990380545669E-16
      7.80000000000000E-01   7.80000000000000E-01   0.00000000000000E+00   0.00000000000000E+00   1.75044691876951E-03
     -8.75751269648401E-91   1.75044691876951E-03   0.00000000000000E+00   0.00000000000000E+00   1.29084865874613E-16
      3.60000000000000E-08
      7.80000000000000E-01   7.80000000000000E-01   0.00000000000000E+00   0.00000000000000E+00   0.00000000000000E+00
      0.00000000000000E+00   0.00000000000000E+00   0.00000000000000E+00   0.00000000000000E+00   3.45941020137656E-16
      0.00000000000000E+00   0.00000000000000E+00   0.00000000000000E+00   0.00000000000000E+00  -1.81904168662718E-03
      8.75751269648204E-91  -1.81904168662718E-03   0.00000000000000E+00   0.00000000000000E+00  -1.57727745332190E-16
      7.80000000000000E-01   7.80000000000000E-01   0.00000000000000E+00   0.00000000000000E+00   1.81904168662719E-03
     -8.75751269648399E-91   1.81904168662719E-03   0.00000000000000E+00   0.00000000000000E+00   1.29098708521623E-16
      4.80000000000000E-08
      7.80000000000000E-01   7.80000000000000E-01   0.00000000000000E+00   0.00000000000000E+00   0.00000000000000E+00
      0.00000000000000E+00   0.00000000000000E+00   0.00000000000000E+00   0.00000000000000E+00   3.38321692734847E-16
      0.00000000000000E+00   0.00000000000000E+00   0.00000000000000E+00   0.00000000000000E+00  -1.81098603171672E-03
      8.75751269648201E-91  -1.81098603171672E-03   0.00000000000000E+00   0.00000000000000E+00  -1.57025146001543E-16
      7.80000000000000E-01   7.80000000000000E-01   0.00000000000000E+00   0.00000000000000E+00   1.81098603171671E-03
     -8.75751269648401E-91   1.81098603171671E-03   0.00000000000000E+00   0.00000000000000E+00   1.28807284786848E-16
      6.00000000000000E-08
      7.80000000000000E-01   7.80000000000000E-01   0.00000000000000E+00   0.00000000000000E+00   0.00000000000000E+00
      0.00000000000000E+00   0.00000000000000E+00   0.00000000000000E+00   0.00000000000000E+00   3.33125479616611E-16
      0.00000000000000E+00   0.00000000000000E+00   0.00000000000000E+00   0.00000000000000E+00  -2.00806846705743E-03
      8.75751269648201E-91  -2.00806846705743E-03   0.00000000000000E+00   0.00000000000000E+00  -1.57524440140687E-16
      7.80000000000000E-01   7.80000000000000E-01   0.00000000000000E+00   0.00000000000000E+00   2.00806846705744E-03
     -8.75751269648402E-91   2.00806846705744E-03   0.00000000000000E+00   0.00000000000000E+00   1.28475890230466E-16
      7.20000000000000E-08
      7.80000000000000E-01   7.80000000000000E-01   0.00000000000000E+00   0.00000000000000E+00   0.00000000000000E+00
      0.00000000000000E+00   0.00000000000000E+00   0.00000000000000E+00   0.00000000000000E+00   3.30180238294174E-16
      0.00000000000000E+00   0.00000000000000E+00   0.00000000000000E+00   0.00000000000000E+00  -1.99945054229370E-03
      8.75751269648202E-91  -1.99945054229370E-03   0.00000000000000E+00   0.00000000000000E+00  -1.57595757059385E-16
      7.80000000000000E-01   7.80000000000000E-01   0.00000000000000E+00   0.00000000000000E+00   1.99945054229371E-03
     -8.75751269648402E-91   1.99945054229371E-03   0.00000000000000E+00   0.00000000000000E+00   1.28939594415663E-16
      8.40000000000000E-08
      7.80000000000000E-01   7.80000000000000E-01   0.00000000000000E+00   0.00000000000000E+00   0.00000000000000E+00
      0.00000000000000E+00   0.00000000000000E+00   0.00000000000000E+00   0.00000000000000E+00   3.25312098365622E-16
      0.00000000000000E+00   0.00000000000000E+00   0.00000000000000E+00   0.00000000000000E+00  -1.92202215226939E-03
      8.75751269648202E-91  -1.92202215226939E-03   0.00000000000000E+00   0.00000000000000E+00  -1.57853686223167E-16
      7.80000000000000E-01   7.80000000000000E-01   0.00000000000000E+00   0.00000000000000E+00   1.92202215226938E-03
     -8.75751269648400E-91   1.92202215226938E-03   0.00000000000000E+00   0.00000000000000E+00   1.28510986035415E-16
      9.60000000000000E-08
      7.80000000000000E-01   7.80000000000000E-01   0.00000000000000E+00   0.00000000000000E+00   0.00000000000000E+00
      0.00000000000000E+00   0.00000000000000E+00   0.00000000000000E+00   0.00000000000000E+00   3.21983428805447E-16
      0.00000000000000E+00   0.00000000000000E+00   0.00000000000000E+00   0.00000000000000E+00  -1.99273535338633E-03
      8.75751269648203E-91  -1.99273535338633E-03   0.00000000000000E+00   0.00000000000000E+00  -1.57693644568339E-16
      7.80000000000000E-01   7.80000000000000E-01   0.00000000000000E+00   0.00000000000000E+00   1.99273535338631E-03
     -8.75751269648403E-91   1.99273535338631E-03   0.00000000000000E+00   0.00000000000000E+00   1.28306689841476E-16
      1.08000000000000E-07
      7.80000000000000E-01   7.80000000000000E-01   0.00000000000000E+00   0.00000000000000E+00   0.00000000000000E+00
      0.00000000000000E+00   0.00000000000000E+00   0.00000000000000E+00   0.00000000000000E+00   3.21140603025667E-16
      0.00000000000000E+00   0.00000000000000E+00   0.00000000000000E+00   0.00000000000000E+00  -2.07369068359413E-03
      8.75751269648202E-91  -2.07369068359413E-03   0.00000000000000E+00   0.00000000000000E+00  -1.57866510889971E-16
      7.80000000000000E-01   7.80000000000000E-01   0.00000000000000E+00   0.00000000000000E+00   2.07369068359412E-03
     -8.75751269648401E-91   2.07369068359412E-03   0.00000000000000E+00   0.00000000000000E+00   1.27937228932921E-16
      1.20000000000000E-07
      7.80000000000000E-01   7.80000000000000E-01   0.00000000000000E+00   0.00000000000000E+00   0.00000000000000E+00
      0.00000000000000E+00   0.00000000000000E+00   0.00000000000000E+00   0.00000000000000E+00   3.16830935248220E-16
      0.00000000000000E+00   0.00000000000000E+00   0.00000000000000E+00   0.00000000000000E+00  -1.93135805443123E-03
      8.75751269648202E-91  -1.93135805443123E-03   0.00000000000000E+00   0.00000000000000E+00  -1.57097856446074E-16
      7.80000000000000E-01   7.80000000000000E-01   0.00000000000000E+00   0.00000000000000E+00   1.93135805443123E-03
     -8.75751269648399E-91   1.93135805443123E-03   0.00000000000000E+00   0.00000000000000E+00   1.27811158217949E-16
      1.32000000000000E-07
      7.80000000000000E-01   7.80000000000000E-01   0.00000000000000E+00   0.00000000000000E+00   0.00000000000000E+00
      0.00000000000000E+00   0.00000000000000E+00   0.00000000000000E+00   0.00000000000000E+00   3.16085945148142E-16
      0.00000000000000E+00   0.00000000000000E+00   0.00000000000000E+00   0.00000000000000E+00  -2.05423411176354E-03
      8.75751269648203E-91  -2.05423411176354E-03   0.00000000000000E+00   0.00000000000000E+00  -1.57061904002059E-16
      7.80000000000000E-01   7.80000000000000E-01   0.00000000000000E+00   0.00000000000000E+00   2.05423411176353E-03
     -8.75751269648401E-91   2.05423411176353E-03   0.00000000000000E+00   0.00000000000000E+00   1.27498200711590E-16
      1.44000000000000E-07
      7.80000000000000E-01   7.80000000000000E-01   0.00000000000000E+00   0.00000000000000E+00   0.00000000000000E+00
      0.00000000000000E+00   0.00000000000000E+00   0.00000000000000E+00   0.00000000000000E+00   3.15266048767015E-16
      0.00000000000000E+00   0.00000000000000E+00   0.00000000000000E+00   0.00000000000000E+00  -2.10361270626088E-03
      8.75751269648201E-91  -2.10361270626088E-03   0.00000000000000E+00   0.00000000000000E+00  -1.57112733735969E-16
      7.80000000000000E-01   7.80000000000000E-01   0.00000000000000E+00   0.00000000000000E+00   2.10361270626088E-03
     -8.75751269648400E-91   2.10361270626088E-03   0.00000000000000E+00   0.00000000000000E+00   1.27487344473253E-16
      1.56000000000000E-07
      7.80000000000000E-01   7.80000000000000E-01   0.00000000000000E+00   0.00000000000000E+00   0.00000000000000E+00
      0.00000000000000E+00   0.00000000000000E+00   0.00000000000000E+00   0.00000000000000E+00   3.12627227112522E-16
      0.00000000000000E+00   0.00000000000000E+00   0.00000000000000E+00   0.00000000000000E+00  -2.04752367007409E-03
      8.75751269648202E-91  -2.04752367007409E-03   0.00000000000000E+00   0.00000000000000E+00  -1.56914223191994E-16
      7.80000000000000E-01   7.80000000000000E-01   0.00000000000000E+00   0.00000000000000E+00   2.04752367007409E-03
     -8.75751269648401E-91   2.04752367007409E-03   0.00000000000000E+00   0.00000000000000E+00   1.27598420299280E-16
      1.68000000000000E-07
      7.80000000000000E-01   7.80000000000000E-01   0.00000000000000E+00   0.00000000000000E+00   0.00000000000000E+00
      0.00000000000000E+00   0.00000000000000E+00   0.00000000000000E+00   0.00000000000000E+00   3.13049524529549E-16
      0.00000000000000E+00   0.00000000000000E+00   0.00000000000000E+00   0.00000000000000E+00  -2.17974048525266E-03
      8.75751269648203E-91  -2.17974048525266E-03   0.00000000000000E+00   0.00000000000000E+00  -1.56944433071883E-16
      7.80000000000000E-01   7.80000000000000E-01   0.00000000000000E+00   0.00000000000000E+00   2.17974048525263E-03
     -8.75751269648401E-91   2.17974048525263E-03   0.00000000000000E+00   0.00000000000000E+00   1.27446643219951E-16
      1.80000000000000E-07
      7.80000000000000E-01   7.80000000000000E-01   0.00000000000000E+00   0.00000000000000E+00   0.00000000000000E+00
      0.00000000000000E+00   0.00000000000000E+00   0.00000000000000E+00   0.00000000000000E+00   3.10393099085078E-16
      0.00000000000000E+00   0.00000000000000E+00   0.00000000000000E+00   0.00000000000000E+00  -2.06268980680570E-03
      8.75751269648203E-91  -2.06268980680570E-03   0.00000000000000E+00   0.00000000000000E+00  -1.56841044402447E-16
      7.80000000000000E-01   7.80000000000000E-01   0.00000000000000E+00   0.00000000000000E+00   2.06268980680570E-03
     -8.75751269648401E-91   2.06268980680570E-03   0.00000000000000E+00   0.00000000000000E+00   1.27512747879330E-16
      1.92000000000000E-07
      7.80000000000000E-01   7.80000000000000E-01   0.00000000000000E+00   0.00000000000000E+00   0.00000000000000E+00
      0.00000000000000E+00   0.00000000000000E+00   0.00000000000000E+00   0.00000000000000E+00   3.10211235783542E-16
      0.00000000000000E+00   0.00000000000000E+00   0.00000000000000E+00   0.00000000000000E+00  -2.16059810138139E-03
      8.75751269648201E-91  -2.16059810138139E-03   0.00000000000000E+00   0.00000000000000E+00  -1.56790780158983E-16
      7.80000000000000E-01   7.80000000000000E-01   0.00000000000000E+00   0.00000000000000E+00   2.16059810138138E-03
     -8.75751269648402E-91   2.16059810138138E-03   0.00000000000000E+00   0.00000000000000E+00   1.27633109389763E-16
      2.04000000000000E-07
      7.80000000000000E-01   7.80000000000000E-01   0.00000000000000E+00   0.00000000000000E+00   0.00000000000000E+00
      0.00000000000000E+00   0.00000000000000E+00   0.00000000000000E+00   0.00000000000000E+00   3.10956954494297E-16
      0.00000000000000E+00   0.00000000000000E+00   0.00000000000000E+00   0.00000000000000E+00  -2.16423390848304E-03
      8.75751269648203E-91  -2.16423390848304E-03   0.00000000000000E+00   0.00000000000000E+00  -1.56516591836775E-16
      7.80000000000000E-01   7.80000000000000E-01   0.00000000000000E+00   0.00000000000000E+00   2.16423390848302E-03
     -8.75751269648401E-91   2.16423390848302E-03   0.00000000000000E+00   0.00000000000000E+00   1.27921857171814E-16
      2.16000000000000E-07
      7.80000000000000E-01   7.80000000000000E-01   0.00000000000000E+00   0.00000000000000E+00   0.00000000000000E+00
      0.00000000000000E+00   0.00000000000000E+00   0.00000000000000E+00   0.00000000000000E+00   3.09627390552416E-16
      0.00000000000000E+00   0.00000000000000E+00   0.00000000000000E+00   0.00000000000000E+00  -2.04457411571303E-03
      8.75751269648202E-91  -2.04457411571303E-03   0.00000000000000E+00   0.00000000000000E+00  -1.57252905712392E-16
      7.80000000000000E-01   7.80000000000000E-01   0.00000000000000E+00   0.00000000000000E+00   2.04457411571302E-03
     -8.75751269648401E-91   2.04457411571302E-03   0.00000000000000E+00   0.00000000000000E+00   1.28553592951957E-16
      2.28000000000000E-07
      7.80000000000000E-01   7.80000000000000E-01   0.00000000000000E+00   0.00000000000000E+00   0.00000000000000E+00
      0.00000000000000E+00   0.00000000000000E+00   0.00000000000000E+00   0.00000000000000E+00   3.09327277943878E-16
      0.00000000000000E+00   0.00000000000000E+00   0.00000000000000E+00   0.00000000000000E+00  -2.04605225634952E-03
      8.75751269648200E-91  -2.04605225634952E-03   0.00000000000000E+00   0.00000000000000E+00  -1.56463281254851E-16
      7.80000000000000E-01   7.80000000000000E-01   0.00000000000000E+00   0.00000000000000E+00   2.04605225634951E-03
     -8.75751269648401E-91   2.04605225634951E-03   0.00000000000000E+00   0.00000000000000E+00   1.28456930791104E-16
      2.40000000000000E-07
      7.80000000000000E-01   7.80000000000000E-01   0.00000000000000E+00   0.00000000000000E+00   0.00000000000000E+00
      0.00000000000000E+00   0.00000000000000E+00   0.00000000000000E+00   0.00000000000000E+00   3.09855895614324E-16
      0.00000000000000E+00   0.00000000000000E+00   0.00000000000000E+00   0.00000000000000E+00  -2.14995597317095E-03
      8.75751269648203E-91  -2.14995597317095E-03   0.00000000000000E+00   0.00000000000000E+00  -1.57004053007207E-16
      7.80000000000000E-01   7.80000000000000E-01   0.00000000000000E+00   0.00000000000000E+00   2.14995597317094E-03
     -8.75751269648402E-91   2.14995597317094E-03   0.00000000000000E+00   0.00000000000000E+00   1.28092935227277E-16
      2.52000000000000E-07
      7.80000000000000E-01   7.80000000000000E-01   0.00000000000000E+00   0.00000000000000E+00   0.00000000000000E+00
      0.00000000000000E+00   0.00000000000000E+00   0.00000000000000E+00   0.00000000000000E+00   3.08351239470339E-16
      0.00000000000000E+00   0.00000000000000E+00   0.00000000000000E+00   0.00000000000000E+00  -2.03201144719998E-03
      8.75751269648200E-91  -2.03201144719998E-03   0.00000000000000E+00   0.00000000000000E+00  -1.56489585366731E-16
      7.80000000000000E-01   7.80000000000000E-01   0.00000000000000E+00   0.00000000000000E+00   2.03201144719997E-03
     -8.75751269648401E-91   2.03201144719997E-03   0.00000000000000E+00   0.00000000000000E+00   1.28080447907206E-16
      2.64000000000000E-07
      7.80000000000000E-01   7.80000000000000E-01   0.00000000000000E+00   0.00000000000000E+00   0.00000000000000E+00
      0.00000000000000E+00   0.00000000000000E+00   0.00000000000000E+00   0.00000000000000E+00   3.09335460215937E-16
      0.00000000000000E+00   0.00000000000000E+00   0.00000000000000E+00   0.00000000000000E+00  -2.16365134924448E-03
      8.75751269648202E-91  -2.16365134924448E-03   0.00000000000000E+00   0.00000000000000E+00  -1.56474228437273E-16
      7.80000000000000E-01   7.80000000000000E-01   0.00000000000000E+00   0.00000000000000E+00   2.16365134924446E-03
     -8.75751269648399E-91   2.16365134924446E-03   0.00000000000000E+00   0.00000000000000E+00   1.27934408750568E-16
      2.76000000000000E-07
      7.80000000000000E-01   7.80000000000000E-01   0.00000000000000E+00   0.00000000000000E+00   0.00000000000000E+00
      0.00000000000000E+00   0.00000000000000E+00   0.00000000000000E+00   0.00000000000000E+00   3.09777095929407E-16
      0.00000000000000E+00   0.00000000000000E+00   0.00000000000000E+00   0.00000000000000E+00  -2.09646698850388E-03
      8.75751269648203E-91  -2.09646698850388E-03   0.00000000000000E+00   0.00000000000000E+00  -1.56248849998213E-16
      7.80000000000000E-01   7.80000000000000E-01   0.00000000000000E+00   0.00000000000000E+00   2.09646698850387E-03
     -8.75751269648402E-91   2.09646698850387E-03   0.00000000000000E+00   0.00000000000000E+00   1.28239022921964E-16
      2.88000000000000E-07
      7.80000000000000E-01   7.80000000000000E-01   0.00000000000000E+00   0.00000000000000E+00   0.00000000000000E+00
      0.00000000000000E+00   0.00000000000000E+00   0.00000000000000E+00   0.00000000000000E+00   3.07211745175800E-16
      0.00000000000000E+00   0.00000000000000E+00   0.00000000000000E+00   0.00000000000000E+00  -1.97140815113141E-03
      8.75751269648203E-91  -1.97140815113141E-03   0.00000000000000E+00   0.00000000000000E+00  -1.56036670159892E-16
      7.80000000000000E-01   7.80000000000000E-01   0.00000000000000E+00   0.00000000000000E+00   1.97140815113138E-03
     -8.75751269648401E-91   1.97140815113138E-03   0.00000000000000E+00   0.00000000000000E+00   1.28547851515564E-16
      3.00000000000000E-07
      7.80000000000000E-01   7.80000000000000E-01   0.00000000000000E+00   0.00000000000000E+00   0.00000000000000E+00
      0.00000000000000E+00   0.00000000000000E+00   0.00000000000000E+00   0.00000000000000E+00   3.09119292898556E-16
      0.00000000000000E+00   0.00000000000000E+00   0.00000000000000E+00   0.00000000000000E+00  -2.20765211516758E-03
      8.75751269648205E-91  -2.20765211516758E-03   0.00000000000000E+00   0.00000000000000E+00  -1.55673170801504E-16
      7.80000000000000E-01   7.80000000000000E-01   0.00000000000000E+00   0.00000000000000E+00   2.20765211516756E-03
     -8.75751269648403E-91   2.20765211516756E-03   0.00000000000000E+00   0.00000000000000E+00   1.28655500720736E-16
      3.12000000000000E-07
      7.80000000000000E-01   7.80000000000000E-01   0.00000000000000E+00   0.00000000000000E+00   0.00000000000000E+00
      0.00000000000000E+00   0.00000000000000E+00   0.00000000000000E+00   0.00000000000000E+00   3.08962408421244E-16
      0.00000000000000E+00   0.00000000000000E+00   0.00000000000000E+00   0.00000000000000E+00  -2.09433840167166E-03
      8.75751269648201E-91  -2.09433840167166E-03   0.00000000000000E+00   0.00000000000000E+00  -1.54971036088183E-16
      7.80000000000000E-01   7.80000000000000E-01   0.00000000000000E+00   0.00000000000000E+00   2.09433840167165E-03
     -8.75751269648402E-91   2.09433840167165E-03   0.00000000000000E+00   0.00000000000000E+00   1.28764059820447E-16
      3.24000000000000E-07
      7.80000000000000E-01   7.80000000000000E-01   0.00000000000000E+00   0.00000000000000E+00   0.00000000000000E+00
      0.00000000000000E+00   0.00000000000000E+00   0.00000000000000E+00   0.00000000000000E+00   3.08387396151486E-16
      0.00000000000000E+00   0.00000000000000E+00   0.00000000000000E+00   0.00000000000000E+00  -2.11192499437844E-03
      8.75751269648201E-91  -2.11192499437844E-03   0.00000000000000E+00   0.00000000000000E+00  -1.55227271112616E-16
      7.80000000000000E-01   7.80000000000000E-01   0.00000000000000E+00   0.00000000000000E+00   2.11192499437842E-03
     -8.75751269648400E-91   2.11192499437842E-03   0.00000000000000E+00   0.00000000000000E+00   1.28806315980730E-16
      3.36000000000000E-07
      7.80000000000000E-01   7.80000000000000E-01   0.00000000000000E+00   0.00000000000000E+00   0.00000000000000E+00
      0.00000000000000E+00   0.00000000000000E+00   0.00000000000000E+00   0.00000000000000E+00   3.07634423306883E-16
      0.00000000000000E+00   0.00000000000000E+00   0.00000000000000E+00   0.00000000000000E+00  -2.13561573113427E-03
      8.75751269648202E-91  -2.13561573113427E-03   0.00000000000000E+00   0.00000000000000E+00  -1.55291232165031E-16
      7.80000000000000E-01   7.80000000000000E-01   0.00000000000000E+00   0.00000000000000E+00   2.13561573113427E-03
     -8.75751269648401E-91   2.13561573113427E-03   0.00000000000000E+00   0.00000000000000E+00   1.29265188529591E-16
      3.48000000000000E-07
      7.80000000000000E-01   7.80000000000000E-01   0.00000000000000E+00   0.00000000000000E+00   0.00000000000000E+00
      0.00000000000000E+00   0.00000000000000E+00   0.00000000000000E+00   0.00000000000000E+00   3.07928236420122E-16
      0.00000000000000E+00   0.00000000000000E+00   0.00000000000000E+00   0.00000000000000E+00  -2.11838323040714E-03
      8.75751269648203E-91  -2.11838323040714E-03   0.00000000000000E+00   0.00000000000000E+00  -1.55945564327146E-16
      7.80000000000000E-01   7.80000000000000E-01   0.00000000000000E+00   0.00000000000000E+00   2.11838323040713E-03
     -8.75751269648399E-91   2.11838323040713E-03   0.00000000000000E+00   0.00000000000000E+00   1.29051949126588E-16
      3.60000000000000E-07
      7.80000000000000E-01   7.80000000000000E-01   0.00000000000000E+00   0.00000000000000E+00   0.00000000000000E+00
      0.00000000000000E+00   0.00000000000000E+00   0.00000000000000E+00   0.00000000000000E+00   3.07928236420122E-16
      0.00000000000000E+00   0.00000000000000E+00   0.00000000000000E+00   0.00000000000000E+00  -1.97643708845005E-03
      3.77635096725679E-23  -1.97643708845005E-03   0.00000000000000E+00   0.00000000000000E+00  -1.55945564327146E-16
      7.80000000000000E-01   7.80000000000000E-01   0.00000000000000E+00   0.00000000000000E+00   1.97643708845005E-03
      8.44335262444411E-27   1.97643708845005E-03   0.00000000000000E+00   0.00000000000000E+00   1.29051949126588E-16
      3.72000000000000E-07
      7.80000000000000E-01   7.80000000000000E-01   0.00000000000000E+00   0.00000000000000E+00   0.00000000000000E+00
      0.00000000000000E+00   0.00000000000000E+00   0.00000000000000E+00   0.00000000000000E+00   3.06522439141007E-16
      0.00000000000000E+00   0.00000000000000E+00   0.00000000000000E+00   0.00000000000000E+00  -2.12049516744718E-03
      3.77635096725679E-23  -2.12049516744718E-03   0.00000000000000E+00   0.00000000000000E+00  -1.56059515132375E-16
      7.80000000000000E-01   7.80000000000000E-01   0.00000000000000E+00   0.00000000000000E+00   2.12049516744716E-03
      8.44335262444411E-27   2.12049516744716E-03   0.00000000000000E+00   0.00000000000000E+00   1.29310362374719E-16
      3.84000000000000E-07
      7.80000000000000E-01   7.80000000000000E-01   0.00000000000000E+00   0.00000000000000E+00   0.00000000000000E+00
      0.00000000000000E+00   0.00000000000000E+00   0.00000000000000E+00   0.00000000000000E+00   3.05562083853278E-16
      0.00000000000000E+00   0.00000000000000E+00   0.00000000000000E+00   0.00000000000000E+00  -2.02686839718912E-03
      3.77635096725679E-23  -2.02686839718912E-03  -2.04846612794861E-03   1.44058075777188E-04  -1.55850947479869E-16
      7.80000000000000E-01   7.80000000000000E-01   0.00000000000000E+00   0.00000000000000E+00   2.02686839718912E-03
      8.44335262444459E-27   2.02686839718912E-03   2.04846612794860E-03   1.44058075777188E-04   1.29178240025707E-16
      3.96000000000000E-07
      7.80000000000000E-01   7.80000000000000E-01   0.00000000000000E+00   0.00000000000000E+00   0.00000000000000E+00
      0.00000000000000E+00   0.00000000000000E+00   0.00000000000000E+00   0.00000000000000E+00   3.04338780533862E-16
      0.00000000000000E+00   0.00000000000000E+00   0.00000000000000E+00   0.00000000000000E+00  -2.21910389873883E-03
      3.77635096725679E-23  -2.21910389873883E-03  -2.04126688436212E-03   8.44090802134353E-05  -1.55458910775798E-16
      7.80000000000000E-01   7.80000000000000E-01   0.00000000000000E+00   0.00000000000000E+00   2.21910389873881E-03
      8.44335262444382E-27   2.21910389873881E-03   2.04126688436211E-03   8.44090802134420E-05   1.29591349909612E-16
      4.08000000000000E-07
      7.80000000000000E-01   7.80000000000000E-01   0.00000000000000E+00   0.00000000000000E+00   0.00000000000000E+00
      0.00000000000000E+00   0.00000000000000E+00   0.00000000000000E+00   0.00000000000000E+00   3.04602174972021E-16
      0.00000000000000E+00   0.00000000000000E+00   0.00000000000000E+00   0.00000000000000E+00  -2.18142775048172E-03
      3.77635096725679E-23  -2.18142775048172E-03  -2.08572613795630E-03   1.07093169615977E-04  -1.55410224918271E-16
      7.80000000000000E-01   7.80000000000000E-01   0.00000000000000E+00   0.00000000000000E+00   2.18142775048169E-03
      8.44335262444401E-27   2.18142775048169E-03   2.08572613795628E-03   1.07093169615977E-04   1.29119678727718E-16
      4.20000000000000E-07
      7.80000000000000E-01   7.80000000000000E-01   0.00000000000000E+00   0.00000000000000E+00   0.00000000000000E+00
      0.00000000000000E+00   0.00000000000000E+00   0.00000000000000E+00   0.00000000000000E+00   3.04248307101027E-16
      0.00000000000000E+00   0.00000000000000E+00   0.00000000000000E+00   0.00000000000000E+00  -2.05391097188380E-03
      3.77635096725679E-23  -2.05391097188380E-03  -2.10486646046138E-03   9.13606912403980E-05  -1.55108394270995E-16
      7.80000000000000E-01   7.80000000000000E-01   0.00000000000000E+00   0.00000000000000E+00   2.05391097188381E-03
      8.44335262444392E-27   2.05391097188381E-03   2.10486646046137E-03   9.13606912403943E-05   1.29070926999550E-16
      4.32000000000000E-07
      7.80000000000000E-01   7.80000000000000E-01   0.00000000000000E+00   0.00000000000000E+00   0.00000000000000E+00
      0.00000000000000E+00   0.00000000000000E+00   0.00000000000000E+00   0.00000000000000E+00   3.03598199700623E-16
      0.00000000000000E+00   0.00000000000000E+00   0.00000000000000E+00   0.00000000000000E+00  -2.15070076477181E-03
      3.77635096725679E-23  -2.15070076477181E-03  -2.09637387903178E-03   7.65049868553606E-05  -1.54996875313420E-16
      7.80000000000000E-01   7.80000000000000E-01   0.00000000000000E+00   0.00000000000000E+00   2.15070076477178E-03
      8.44335262444411E-27   2.15070076477178E-03   2.09637387903177E-03   7.65049868553488E-05   1.29141189668428E-16
      4.44000000000000E-07
      7.80000000000000E-01   7.80000000000000E-01   0.00000000000000E+00   0.00000000000000E+00   0.00000000000000E+00
      0.00000000000000E+00   0.00000000000000E+00   0.00000000000000E+00   0.00000000000000E+00   3.03880972644009E-16
      0.00000000000000E+00   0.00000000000000E+00   0.00000000000000E+00   0.00000000000000E+00  -2.13756701495655E-03
      3.77635096725679E-23  -2.13756701495655E-03  -2.10413486270893E-03   6.64955264737399E-05  -1.55303551233674E-16