DF-ISE text

Info {
  version   = 1.0
  type      = xyplot
  datasets  = [
    "time"
    "gate OuterVoltage" "gate InnerVoltage" "gate QuasiFermiPotential" "gate DisplacementCurrent" "gate eCurrent"
    "gate hCurrent" "gate TotalCurrent" "gate MCTotalCurrent" "gate MCTotalCurrentError" "gate Charge"
    "source OuterVoltage" "source InnerVoltage" "source QuasiFermiPotential" "source DisplacementCurrent" "source eCurrent"
    "source hCurrent" "source TotalCurrent" "source MCTotalCurrent" "source MCTotalCurrentError" "source Charge"
    "drain OuterVoltage" "drain InnerVoltage" "drain QuasiFermiPotential" "drain DisplacementCurrent" "drain eCurrent"
    "drain hCurrent" "drain TotalCurrent" "drain MCTotalCurrent" "drain MCTotalCurrentError" "drain Charge" ]
  functions = [
    Time
    OuterVoltage InnerVoltage QuasiFermiPotential DisplacementCurrent eCurrent
    hCurrent TotalCurrent MCTotalCurrent MCTotalCurrentError Charge
    OuterVoltage InnerVoltage QuasiFermiPotential DisplacementCurrent eCurrent
    hCurrent TotalCurrent MCTotalCurrent MCTotalCurrentError Charge
    OuterVoltage InnerVoltage QuasiFermiPotential DisplacementCurrent eCurrent
    hCurrent TotalCurrent MCTotalCurrent MCTotalCurrentError Charge ]
}

Data {
      0.00000000000000E+00
     -7.80000000000000E-01  -7.80000000000000E-01   0.00000000000000E+00   0.00000000000000E+00   0.00000000000000E+00
      0.00000000000000E+00   0.00000000000000E+00   0.00000000000000E+00   0.00000000000000E+00  -3.42800455736107E-16
      0.00000000000000E+00   0.00000000000000E+00   0.00000000000000E+00   0.00000000000000E+00   1.68108759975396E-03
     -1.96923471088125E-17   1.68108759975394E-03   0.00000000000000E+00   0.00000000000000E+00   1.63245492360059E-16
     -7.80000000000000E-01  -7.80000000000000E-01   0.00000000000000E+00   0.00000000000000E+00  -1.68108759975398E-03
      3.83335390969713E-17  -1.68108759975394E-03   0.00000000000000E+00   0.00000000000000E+00  -1.23157463329101E-16
      0.00000000000000E+00
     -7.80000000000000E-01  -7.80000000000000E-01   0.00000000000000E+00   0.00000000000000E+00   0.00000000000000E+00
      0.00000000000000E+00   0.00000000000000E+00   0.00000000000000E+00   0.00000000000000E+00  -3.42800455736107E-16
      0.00000000000000E+00   0.00000000000000E+00   0.00000000000000E+00   0.00000000000000E+00  -8.75751269648203E-91
      8.75751269648202E-91 -1.36638422197708E-105   0.00000000000000E+00   0.00000000000000E+00   1.63245492360059E-16
     -7.80000000000000E-01  -7.80000000000000E-01   0.00000000000000E+00   0.00000000000000E+00   8.75751269648403E-91
     -8.75751269648400E-91  2.84663379578559E-105   0.00000000000000E+00   0.00000000000000E+00  -1.23157463329101E-16
      1.20000000000000E-08
     -7.80000000000000E-01  -7.80000000000000E-01   0.00000000000000E+00   0.00000000000000E+00   0.00000000000000E+00
      0.00000000000000E+00   0.00000000000000E+00   0.00000000000000E+00   0.00000000000000E+00  -3.30312303004767E-16
      0.00000000000000E+00   0.00000000000000E+00   0.00000000000000E+00   0.00000000000000E+00  -8.75751269648201E-91
      1.46719108109896E-03   1.46719108109896E-03   0.00000000000000E+00   0.00000000000000E+00   1.61753918719171E-16
     -7.80000000000000E-01  -7.80000000000000E-01   0.00000000000000E+00   0.00000000000000E+00   8.75751269648399E-91
     -1.46719108109897E-03  -1.46719108109897E-03   0.00000000000000E+00   0.00000000000000E+00  -1.23343025796292E-16
      2.40000000000000E-08
     -7.80000000000000E-01  -7.80000000000000E-01   0.00000000000000E+00   0.00000000000000E+00   0.00000000000000E+00
      0.00000000000000E+00   0.00000000000000E+00   0.00000000000000E+00   0.00000000000000E+00  -3.28006283515281E-16
      0.00000000000000E+00   0.00000000000000E+00   0.00000000000000E+00   0.00000000000000E+00  -8.75751269648203E-91
      1.68407030440201E-03   1.68407030440201E-03   0.00000000000000E+00   0.00000000000000E+00   1.61709460678711E-16
     -7.80000000000000E-01  -7.80000000000000E-01   0.00000000000000E+00   0.00000000000000E+00   8.75751269648403E-91
     -1.68407030440202E-03  -1.68407030440202E-03   0.00000000000000E+00   0.00000000000000E+00  -1.23046127832270E-16
      3.60000000000000E-08
     -7.80000000000000E-01  -7.80000000000000E-01   0.00000000000000E+00   0.00000000000000E+00   0.00000000000000E+00
      0.00000000000000E+00   0.00000000000000E+00   0.00000000000000E+00   0.00000000000000E+00  -3.27192162834995E-16
      0.00000000000000E+00   0.00000000000000E+00   0.00000000000000E+00   0.00000000000000E+00  -8.75751269648202E-91
      1.69414381411406E-03   1.69414381411406E-03   0.00000000000000E+00   0.00000000000000E+00   1.61180580707614E-16
     -7.80000000000000E-01  -7.80000000000000E-01   0.00000000000000E+00   0.00000000000000E+00   8.75751269648400E-91
     -1.69414381411406E-03  -1.69414381411406E-03   0.00000000000000E+00   0.00000000000000E+00  -1.22606273090789E-16
      4.80000000000000E-08
     -7.80000000000000E-01  -7.80000000000000E-01   0.00000000000000E+00   0.00000000000000E+00   0.00000000000000E+00
      0.00000000000000E+00   0.00000000000000E+00   0.00000000000000E+00   0.00000000000000E+00  -3.26628042775891E-16
      0.00000000000000E+00   0.00000000000000E+00   0.00000000000000E+00   0.00000000000000E+00  -8.75751269648203E-91
      1.71513675795152E-03   1.71513675795152E-03   0.00000000000000E+00   0.00000000000000E+00   1.60617933692754E-16
     -7.80000000000000E-01  -7.80000000000000E-01   0.00000000000000E+00   0.00000000000000E+00   8.75751269648403E-91
     -1.71513675795152E-03  -1.71513675795152E-03   0.00000000000000E+00   0.00000000000000E+00  -1.23064095157857E-16
      6.00000000000000E-08
     -7.80000000000000E-01  -7.80000000000000E-01   0.00000000000000E+00   0.00000000000000E+00   0.00000000000000E+00
      0.00000000000000E+00   0.00000000000000E+00   0.00000000000000E+00   0.00000000000000E+00  -3.24855531011598E-16
      0.00000000000000E+00   0.00000000000000E+00   0.00000000000000E+00   0.00000000000000E+00  -8.75751269648200E-91
      1.66787056581929E-03   1.66787056581929E-03   0.00000000000000E+00   0.00000000000000E+00   1.60351432749392E-16
     -7.80000000000000E-01  -7.80000000000000E-01   0.00000000000000E+00   0.00000000000000E+00   8.75751269648400E-91
     -1.66787056581928E-03  -1.66787056581928E-03   0.00000000000000E+00   0.00000000000000E+00  -1.22894120739361E-16
      7.20000000000000E-08
     -7.80000000000000E-01  -7.80000000000000E-01   0.00000000000000E+00   0.00000000000000E+00   0.00000000000000E+00
      0.00000000000000E+00   0.00000000000000E+00   0.00000000000000E+00   0.00000000000000E+00  -3.25384964265837E-16
      0.00000000000000E+00   0.00000000000000E+00   0.00000000000000E+00   0.00000000000000E+00  -8.75751269648201E-91
      1.76709855761105E-03   1.76709855761105E-03   0.00000000000000E+00   0.00000000000000E+00   1.60060460989274E-16
     -7.80000000000000E-01  -7.80000000000000E-01   0.00000000000000E+00   0.00000000000000E+00   8.75751269648400E-91
     -1.76709855761107E-03  -1.76709855761107E-03   0.00000000000000E+00   0.00000000000000E+00  -1.23050974907646E-16
      8.40000000000000E-08
     -7.80000000000000E-01  -7.80000000000000E-01   0.00000000000000E+00   0.00000000000000E+00   0.00000000000000E+00
      0.00000000000000E+00   0.00000000000000E+00   0.00000000000000E+00   0.00000000000000E+00  -3.26834457687508E-16
      0.00000000000000E+00   0.00000000000000E+00   0.00000000000000E+00   0.00000000000000E+00  -8.75751269648200E-91
      1.81478539576843E-03   1.81478539576843E-03   0.00000000000000E+00   0.00000000000000E+00   1.60825676237967E-16
     -7.80000000000000E-01  -7.80000000000000E-01   0.00000000000000E+00   0.00000000000000E+00   8.75751269648401E-91
     -1.81478539576843E-03  -1.81478539576843E-03   0.00000000000000E+00   0.00000000000000E+00  -1.22846284794016E-16
      9.60000000000000E-08
     -7.80000000000000E-01  -7.80000000000000E-01   0.00000000000000E+00   0.00000000000000E+00   0.00000000000000E+00
      0.00000000000000E+00   0.00000000000000E+00   0.00000000000000E+00   0.00000000000000E+00  -3.27790891642397E-16
      0.00000000000000E+00   0.00000000000000E+00   0.00000000000000E+00   0.00000000000000E+00  -8.75751269648201E-91
      1.77610069313386E-03   1.77610069313386E-03   0.00000000000000E+00   0.00000000000000E+00   1.61000141304750E-16
     -7.80000000000000E-01  -7.80000000000000E-01   0.00000000000000E+00   0.00000000000000E+00   8.75751269648400E-91
     -1.77610069313385E-03  -1.77610069313385E-03   0.00000000000000E+00   0.00000000000000E+00  -1.23393376221873E-16
      1.08000000000000E-07
     -7.80000000000000E-01  -7.80000000000000E-01   0.00000000000000E+00   0.00000000000000E+00   0.00000000000000E+00
      0.00000000000000E+00   0.00000000000000E+00   0.00000000000000E+00   0.00000000000000E+00  -3.25796591600197E-16
      0.00000000000000E+00   0.00000000000000E+00   0.00000000000000E+00   0.00000000000000E+00  -8.75751269648203E-91
      1.62902659575236E-03   1.62902659575236E-03   0.00000000000000E+00   0.00000000000000E+00   1.60529955044580E-16
     -7.80000000000000E-01  -7.80000000000000E-01   0.00000000000000E+00   0.00000000000000E+00   8.75751269648403E-91
     -1.62902659575235E-03  -1.62902659575235E-03   0.00000000000000E+00   0.00000000000000E+00  -1.23250949489892E-16
      1.20000000000000E-07
     -7.80000000000000E-01  -7.80000000000000E-01   0.00000000000000E+00   0.00000000000000E+00   0.00000000000000E+00
      0.00000000000000E+00   0.00000000000000E+00   0.00000000000000E+00   0.00000000000000E+00  -3.24392617003707E-16
      0.00000000000000E+00   0.00000000000000E+00   0.00000000000000E+00   0.00000000000000E+00  -8.75751269648201E-91
      1.61560854676430E-03   1.61560854676430E-03   0.00000000000000E+00   0.00000000000000E+00   1.60512518185962E-16
     -7.80000000000000E-01  -7.80000000000000E-01   0.00000000000000E+00   0.00000000000000E+00   8.75751269648402E-91
     -1.61560854676429E-03  -1.61560854676429E-03   0.00000000000000E+00   0.00000000000000E+00  -1.23392733649484E-16
      1.32000000000000E-07
     -7.80000000000000E-01  -7.80000000000000E-01   0.00000000000000E+00   0.00000000000000E+00   0.00000000000000E+00
      0.00000000000000E+00   0.00000000000000E+00   0.00000000000000E+00   0.00000000000000E+00  -3.24656836767193E-16
      0.00000000000000E+00   0.00000000000000E+00   0.00000000000000E+00   0.00000000000000E+00  -8.75751269648203E-91
      1.71005787920905E-03   1.71005787920905E-03   0.00000000000000E+00   0.00000000000000E+00   1.59922057101029E-16
     -7.80000000000000E-01  -7.80000000000000E-01   0.00000000000000E+00   0.00000000000000E+00   8.75751269648403E-91
     -1.71005787920904E-03  -1.71005787920904E-03   0.00000000000000E+00   0.00000000000000E+00  -1.23437057102078E-16
      1.44000000000000E-07
     -7.80000000000000E-01  -7.80000000000000E-01   0.00000000000000E+00   0.00000000000000E+00   0.00000000000000E+00
      0.00000000000000E+00   0.00000000000000E+00   0.00000000000000E+00   0.00000000000000E+00  -3.23646307653190E-16
      0.00000000000000E+00   0.00000000000000E+00   0.00000000000000E+00   0.00000000000000E+00  -8.75751269648202E-91
      1.74077470367979E-03   1.74077470367979E-03   0.00000000000000E+00   0.00000000000000E+00   1.60159572183824E-16
     -7.80000000000000E-01  -7.80000000000000E-01   0.00000000000000E+00   0.00000000000000E+00   8.75751269648400E-91
     -1.74077470367978E-03  -1.74077470367978E-03   0.00000000000000E+00   0.00000000000000E+00  -1.23839697362120E-16
      1.56000000000000E-07
     -7.80000000000000E-01  -7.80000000000000E-01   0.00000000000000E+00   0.00000000000000E+00   0.00000000000000E+00
      0.00000000000000E+00   0.00000000000000E+00   0.00000000000000E+00   0.00000000000000E+00  -3.21499134663589E-16
      0.00000000000000E+00   0.00000000000000E+00   0.00000000000000E+00   0.00000000000000E+00  -8.75751269648200E-91
      1.63584594326888E-03   1.63584594326888E-03   0.00000000000000E+00   0.00000000000000E+00   1.60026333571770E-16
     -7.80000000000000E-01  -7.80000000000000E-01   0.00000000000000E+00   0.00000000000000E+00   8.75751269648402E-91
     -1.63584594326886E-03  -1.63584594326886E-03   0.00000000000000E+00   0.00000000000000E+00  -1.24263073718422E-16
      1.68000000000000E-07
     -7.80000000000000E-01  -7.80000000000000E-01   0.00000000000000E+00   0.00000000000000E+00   0.00000000000000E+00
      0.00000000000000E+00   0.00000000000000E+00   0.00000000000000E+00   0.00000000000000E+00  -3.22897884398099E-16
      0.00000000000000E+00   0.00000000000000E+00   0.00000000000000E+00   0.00000000000000E+00  -8.75751269648202E-91
      1.74867171844333E-03   1.74867171844333E-03   0.00000000000000E+00   0.00000000000000E+00   1.59434614044930E-16
     -7.80000000000000E-01  -7.80000000000000E-01   0.00000000000000E+00   0.00000000000000E+00   8.75751269648401E-91
     -1.74867171844331E-03  -1.74867171844331E-03   0.00000000000000E+00   0.00000000000000E+00  -1.23789217865667E-16
      1.80000000000000E-07
     -7.80000000000000E-01  -7.80000000000000E-01   0.00000000000000E+00   0.00000000000000E+00   0.00000000000000E+00
      0.00000000000000E+00   0.00000000000000E+00   0.00000000000000E+00   0.00000000000000E+00  -3.21662220484802E-16
      0.00000000000000E+00   0.00000000000000E+00   0.00000000000000E+00   0.00000000000000E+00  -8.75751269648204E-91
      1.62276622767377E-03   1.62276622767377E-03   0.00000000000000E+00   0.00000000000000E+00   1.58908248613155E-16
     -7.80000000000000E-01  -7.80000000000000E-01   0.00000000000000E+00   0.00000000000000E+00   8.75751269648402E-91
     -1.62276622767375E-03  -1.62276622767375E-03   0.00000000000000E+00   0.00000000000000E+00  -1.24180224450048E-16
      1.92000000000000E-07
     -7.80000000000000E-01  -7.80000000000000E-01   0.00000000000000E+00   0.00000000000000E+00   0.00000000000000E+00
      0.00000000000000E+00   0.00000000000000E+00   0.00000000000000E+00   0.00000000000000E+00  -3.20424090892778E-16
      0.00000000000000E+00   0.00000000000000E+00   0.00000000000000E+00   0.00000000000000E+00  -8.75751269648202E-91
      1.68281246993283E-03   1.68281246993283E-03   0.00000000000000E+00   0.00000000000000E+00   1.58981112049227E-16
     -7.80000000000000E-01  -7.80000000000000E-01   0.00000000000000E+00   0.00000000000000E+00   8.75751269648403E-91
     -1.68281246993283E-03  -1.68281246993283E-03   0.00000000000000E+00   0.00000000000000E+00  -1.23793717800414E-16
      2.04000000000000E-07
     -7.80000000000000E-01  -7.80000000000000E-01   0.00000000000000E+00   0.00000000000000E+00   0.00000000000000E+00
      0.00000000000000E+00   0.00000000000000E+00   0.00000000000000E+00   0.00000000000000E+00  -3.23014207255770E-16
      0.00000000000000E+00   0.00000000000000E+00   0.00000000000000E+00   0.00000000000000E+00  -8.75751269648201E-91
      1.83262173312749E-03   1.83262173312749E-03   0.00000000000000E+00   0.00000000000000E+00   1.58980958264127E-16
     -7.80000000000000E-01  -7.80000000000000E-01   0.00000000000000E+00   0.00000000000000E+00   8.75751269648401E-91
     -1.83262173312748E-03  -1.83262173312748E-03   0.00000000000000E+00   0.00000000000000E+00  -1.23851779777721E-16
      2.16000000000000E-07
     -7.80000000000000E-01  -7.80000000000000E-01   0.00000000000000E+00   0.00000000000000E+00   0.00000000000000E+00
      0.00000000000000E+00   0.00000000000000E+00   0.00000000000000E+00   0.00000000000000E+00  -3.24298524447104E-16
      0.00000000000000E+00   0.00000000000000E+00   0.00000000000000E+00   0.00000000000000E+00  -8.75751269648201E-91
      1.74296487010618E-03   1.74296487010618E-03   0.00000000000000E+00   0.00000000000000E+00   1.59559836652923E-16
     -7.80000000000000E-01  -7.80000000000000E-01   0.00000000000000E+00   0.00000000000000E+00   8.75751269648399E-91
     -1.74296487010619E-03  -1.74296487010619E-03   0.00000000000000E+00   0.00000000000000E+00  -1.23903641267348E-16
      2.28000000000000E-07
     -7.80000000000000E-01  -7.80000000000000E-01   0.00000000000000E+00   0.00000000000000E+00   0.00000000000000E+00
      0.00000000000000E+00   0.00000000000000E+00   0.00000000000000E+00   0.00000000000000E+00  -3.23109844266805E-16
      0.00000000000000E+00   0.00000000000000E+00   0.00000000000000E+00   0.00000000000000E+00  -8.75751269648202E-91
      1.61434005273846E-03   1.61434005273846E-03   0.00000000000000E+00   0.00000000000000E+00   1.59167732702750E-16
     -7.80000000000000E-01  -7.80000000000000E-01   0.00000000000000E+00   0.00000000000000E+00   8.75751269648402E-91
     -1.61434005273845E-03  -1.61434005273845E-03   0.00000000000000E+00   0.00000000000000E+00  -1.24305746353729E-16
      2.40000000000000E-07
     -7.80000000000000E-01  -7.80000000000000E-01   0.00000000000000E+00   0.00000000000000E+00   0.00000000000000E+00
      0.00000000000000E+00   0.00000000000000E+00   0.00000000000000E+00   0.00000000000000E+00  -3.18338314179885E-16
      0.00000000000000E+00   0.00000000000000E+00   0.00000000000000E+00   0.00000000000000E+00  -8.75751269648201E-91
      1.47527942223572E-03   1.47527942223572E-03   0.00000000000000E+00   0.00000000000000E+00   1.59701857991014E-16
     -7.80000000000000E-01  -7.80000000000000E-01   0.00000000000000E+00   0.00000000000000E+00   8.75751269648400E-91
     -1.47527942223570E-03  -1.47527942223570E-03   0.00000000000000E+00   0.00000000000000E+00  -1.24889907473384E-16
      2.52000000000000E-07
     -7.80000000000000E-01  -7.80000000000000E-01   0.00000000000000E+00   0.00000000000000E+00   0.00000000000000E+00
      0.00000000000000E+00   0.00000000000000E+00   0.00000000000000E+00   0.00000000000000E+00  -3.17997428444149E-16
      0.00000000000000E+00   0.00000000000000E+00   0.00000000000000E+00   0.00000000000000E+00  -8.75751269648204E-91
      1.68841897519358E-03   1.68841897519358E-03   0.00000000000000E+00   0.00000000000000E+00   1.58977426920331E-16
     -7.80000000000000E-01  -7.80000000000000E-01   0.00000000000000E+00   0.00000000000000E+00   8.75751269648400E-91
     -1.68841897519356E-03  -1.68841897519356E-03   0.00000000000000E+00   0.00000000000000E+00  -1.24420411532936E-16
      2.64000000000000E-07
     -7.80000000000000E-01  -7.80000000000000E-01   0.00000000000000E+00   0.00000000000000E+00   0.00000000000000E+00
      0.00000000000000E+00   0.00000000000000E+00   0.00000000000000E+00   0.00000000000000E+00  -3.20277830666762E-16
      0.00000000000000E+00   0.00000000000000E+00   0.00000000000000E+00   0.00000000000000E+00  -8.75751269648203E-91
      1.80202576927136E-03   1.80202576927136E-03   0.00000000000000E+00   0.00000000000000E+00   1.59031071755336E-16
     -7.80000000000000E-01  -7.80000000000000E-01   0.00000000000000E+00   0.00000000000000E+00   8.75751269648400E-91
     -1.80202576927135E-03  -1.80202576927135E-03   0.00000000000000E+00   0.00000000000000E+00  -1.24410878363526E-16
      2.76000000000000E-07
     -7.80000000000000E-01  -7.80000000000000E-01   0.00000000000000E+00   0.00000000000000E+00   0.00000000000000E+00
      0.00000000000000E+00   0.00000000000000E+00   0.00000000000000E+00   0.00000000000000E+00  -3.20339394343856E-16
      0.00000000000000E+00   0.00000000000000E+00   0.00000000000000E+00   0.00000000000000E+00  -8.75751269648202E-91
      1.66229682395789E-03   1.66229682395789E-03   0.00000000000000E+00   0.00000000000000E+00   1.58528639836360E-16
     -7.80000000000000E-01  -7.80000000000000E-01   0.00000000000000E+00   0.00000000000000E+00   8.75751269648400E-91
     -1.66229682395786E-03  -1.66229682395786E-03   0.00000000000000E+00   0.00000000000000E+00  -1.24676733672091E-16
      2.88000000000000E-07
     -7.80000000000000E-01  -7.80000000000000E-01   0.00000000000000E+00   0.00000000000000E+00   0.00000000000000E+00
      0.00000000000000E+00   0.00000000000000E+00   0.00000000000000E+00   0.00000000000000E+00  -3.22216459796462E-16
      0.00000000000000E+00   0.00000000000000E+00   0.00000000000000E+00   0.00000000000000E+00  -8.75751269648200E-91
      1.80224934021884E-03   1.80224934021884E-03   0.00000000000000E+00   0.00000000000000E+00   1.58921309496991E-16
     -7.80000000000000E-01  -7.80000000000000E-01   0.00000000000000E+00   0.00000000000000E+00   8.75751269648402E-91
     -1.80224934021883E-03  -1.80224934021883E-03   0.00000000000000E+00   0.00000000000000E+00  -1.24780851712412E-16
      3.00000000000000E-07
     -7.80000000000000E-01  -7.80000000000000E-01   0.00000000000000E+00   0.00000000000000E+00   0.00000000000000E+00
      0.00000000000000E+00   0.00000000000000E+00   0.00000000000000E+00   0.00000000000000E+00  -3.17984015580864E-16
      0.00000000000000E+00   0.00000000000000E+00   0.00000000000000E+00   0.00000000000000E+00  -8.75751269648201E-91
      1.48490676830105E-03   1.48490676830105E-03   0.00000000000000E+00   0.00000000000000E+00   1.59131206625674E-16
     -7.80000000000000E-01  -7.80000000000000E-01   0.00000000000000E+00   0.00000000000000E+00   8.75751269648403E-91
     -1.48490676830104E-03  -1.48490676830104E-03   0.00000000000000E+00   0.00000000000000E+00  -1.24581454644500E-16
      3.12000000000000E-07
     -7.80000000000000E-01  -7.80000000000000E-01   0.00000000000000E+00   0.00000000000000E+00   0.00000000000000E+00
      0.00000000000000E+00   0.00000000000000E+00   0.00000000000000E+00   0.00000000000000E+00  -3.16668018446495E-16
      0.00000000000000E+00   0.00000000000000E+00   0.00000000000000E+00   0.00000000000000E+00  -8.75751269648204E-91
      1.63268500078226E-03   1.63268500078226E-03   0.00000000000000E+00   0.00000000000000E+00   1.59451968254181E-16
     -7.80000000000000E-01  -7.80000000000000E-01   0.00000000000000E+00   0.00000000000000E+00   8.75751269648400E-91
     -1.63268500078225E-03  -1.63268500078225E-03   0.00000000000000E+00   0.00000000000000E+00  -1.24922936949443E-16
      3.24000000000000E-07
     -7.80000000000000E-01  -7.80000000000000E-01   0.00000000000000E+00   0.00000000000000E+00   0.00000000000000E+00
      0.00000000000000E+00   0.00000000000000E+00   0.00000000000000E+00   0.00000000000000E+00  -3.14712640217460E-16
      0.00000000000000E+00   0.00000000000000E+00   0.00000000000000E+00   0.00000000000000E+00  -8.75751269648202E-91
      1.56108640070184E-03   1.56108640070184E-03   0.00000000000000E+00   0.00000000000000E+00   1.58520091905793E-16
     -7.80000000000000E-01  -7.80000000000000E-01   0.00000000000000E+00   0.00000000000000E+00   8.75751269648402E-91
     -1.56108640070182E-03  -1.56108640070182E-03   0.00000000000000E+00   0.00000000000000E+00  -1.25147122033542E-16
      3.36000000000000E-07
     -7.80000000000000E-01  -7.80000000000000E-01   0.00000000000000E+00   0.00000000000000E+00   0.00000000000000E+00
      0.00000000000000E+00   0.00000000000000E+00   0.00000000000000E+00   0.00000000000000E+00  -3.14861669331456E-16
      0.00000000000000E+00   0.00000000000000E+00   0.00000000000000E+00   0.00000000000000E+00  -8.75751269648201E-91
      1.72290732639718E-03   1.72290732639718E-03   0.00000000000000E+00   0.00000000000000E+00   1.58549756801194E-16
     -7.80000000000000E-01  -7.80000000000000E-01   0.00000000000000E+00   0.00000000000000E+00   8.75751269648404E-91
     -1.72290732639717E-03  -1.72290732639717E-03   0.00000000000000E+00   0.00000000000000E+00  -1.25397087551144E-16
      3.48000000000000E-07
     -7.80000000000000E-01  -7.80000000000000E-01   0.00000000000000E+00   0.00000000000000E+00   0.00000000000000E+00
      0.00000000000000E+00   0.00000000000000E+00   0.00000000000000E+00   0.00000000000000E+00  -3.16289606418662E-16
      0.00000000000000E+00   0.00000000000000E+00   0.00000000000000E+00   0.00000000000000E+00  -8.75751269648202E-91
      1.75074640779896E-03   1.75074640779896E-03   0.00000000000000E+00   0.00000000000000E+00   1.58317768879030E-16
     -7.80000000000000E-01  -7.80000000000000E-01   0.00000000000000E+00   0.00000000000000E+00   8.75751269648401E-91
     -1.75074640779895E-03  -1.75074640779895E-03   0.00000000000000E+00   0.00000000000000E+00  -1.25111912665089E-16
      3.60000000000000E-07
     -7.80000000000000E-01  -7.80000000000000E-01   0.00000000000000E+00   0.00000000000000E+00   0.00000000000000E+00
      0.00000000000000E+00   0.00000000000000E+00   0.00000000000000E+00   0.00000000000000E+00  -3.16289606418662E-16
      0.00000000000000E+00   0.00000000000000E+00   0.00000000000000E+00   0.00000000000000E+00  -7.56615363671807E-25
      1.67392088876773E-03   1.67392088876773E-03   0.00000000000000E+00   0.00000000000000E+00   1.58317768879030E-16
     -7.80000000000000E-01  -7.80000000000000E-01   0.00000000000000E+00   0.00000000000000E+00  -7.86327566859958E-25
     -1.67392088876771E-03  -1.67392088876771E-03   0.00000000000000E+00   0.00000000000000E+00  -1.25111912665089E-16
      3.72000000000000E-07
     -7.80000000000000E-01  -7.80000000000000E-01   0.00000000000000E+00   0.00000000000000E+00   0.00000000000000E+00
      0.00000000000000E+00   0.00000000000000E+00   0.00000000000000E+00   0.00000000000000E+00  -3.15246835396787E-16
      0.00000000000000E+00   0.00000000000000E+00   0.00000000000000E+00   0.00000000000000E+00  -7.56615363671807E-25
      1.62250288313744E-03   1.62250288313744E-03   0.00000000000000E+00   0.00000000000000E+00   1.57977935647344E-16
     -7.80000000000000E-01  -7.80000000000000E-01   0.00000000000000E+00   0.00000000000000E+00  -7.86327566859958E-25
     -1.62250288313743E-03  -1.62250288313743E-03   0.00000000000000E+00   0.00000000000000E+00  -1.25456142996590E-16
      3.84000000000000E-07
     -7.80000000000000E-01  -7.80000000000000E-01   0.00000000000000E+00   0.00000000000000E+00   0.00000000000000E+00
      0.00000000000000E+00   0.00000000000000E+00   0.00000000000000E+00   0.00000000000000E+00  -3.15043698129039E-16
      0.00000000000000E+00   0.00000000000000E+00   0.00000000000000E+00   0.00000000000000E+00  -7.56615363671807E-25
      1.77423914794414E-03   1.77423914794414E-03   1.64821188595258E-03   5.14180044809941E-05   1.57706516016368E-16
     -7.80000000000000E-01  -7.80000000000000E-01   0.00000000000000E+00   0.00000000000000E+00  -7.86327566859958E-25
     -1.77423914794414E-03  -1.77423914794414E-03  -1.64821188595257E-03   5.14180044809941E-05  -1.25553121220409E-16
      3.96000000000000E-07
     -7.80000000000000E-01  -7.80000000000000E-01   0.00000000000000E+00   0.00000000000000E+00   0.00000000000000E+00
      0.00000000000000E+00   0.00000000000000E+00   0.00000000000000E+00   0.00000000000000E+00  -3.15980355996694E-16
      0.00000000000000E+00   0.00000000000000E+00   0.00000000000000E+00   0.00000000000000E+00  -7.56615363671807E-25
      1.73188648092902E-03   1.73188648092902E-03   1.69022097328310E-03   8.91084942794185E-05   1.58026652004149E-16
     -7.80000000000000E-01  -7.80000000000000E-01   0.00000000000000E+00   0.00000000000000E+00  -7.86327566859958E-25
     -1.73188648092901E-03  -1.73188648092901E-03  -1.69022097328309E-03   8.91084942794311E-05  -1.25535157766415E-16
      4.08000000000000E-07
     -7.80000000000000E-01  -7.80000000000000E-01   0.00000000000000E+00   0.00000000000000E+00   0.00000000000000E+00
      0.00000000000000E+00   0.00000000000000E+00   0.00000000000000E+00   0.00000000000000E+00  -3.17304720713666E-16
      0.00000000000000E+00   0.00000000000000E+00   0.00000000000000E+00   0.00000000000000E+00  -7.56615363671807E-25
      1.66774295974734E-03   1.66774295974734E-03   1.70063735019458E-03   6.63638869327219E-05   1.57446725916368E-16
     -7.80000000000000E-01  -7.80000000000000E-01   0.00000000000000E+00   0.00000000000000E+00  -7.86327566859958E-25
     -1.66774295974733E-03  -1.66774295974733E-03  -1.70063735019457E-03   6.63638869327262E-05  -1.25363857759193E-16
      4.20000000000000E-07
     -7.80000000000000E-01  -7.80000000000000E-01   0.00000000000000E+00   0.00000000000000E+00   0.00000000000000E+00
      0.00000000000000E+00   0.00000000000000E+00   0.00000000000000E+00   0.00000000000000E+00  -3.16347444613300E-16
      0.00000000000000E+00   0.00000000000000E+00   0.00000000000000E+00   0.00000000000000E+00  -7.56615363671807E-25
      1.68486412404013E-03   1.68486412404013E-03   1.69405847210513E-03   5.30624710432450E-05   1.57647057738283E-16
     -7.80000000000000E-01  -7.80000000000000E-01   0.00000000000000E+00   0.00000000000000E+00  -7.86327566859958E-25
     -1.68486412404013E-03  -1.68486412404013E-03  -1.69405847210512E-03   5.30624710432545E-05  -1.25126552615165E-16
      4.32000000000000E-07
     -7.80000000000000E-01  -7.80000000000000E-01   0.00000000000000E+00   0.00000000000000E+00   0.00000000000000E+00
      0.00000000000000E+00   0.00000000000000E+00   0.00000000000000E+00   0.00000000000000E+00  -3.15652764262576E-16
      0.00000000000000E+00   0.00000000000000E+00   0.00000000000000E+00   0.00000000000000E+00  -7.56615363671807E-25
      1.60482205487775E-03   1.60482205487775E-03   1.69252608076097E-03   4.34335904723109E-05   1.57070188408483E-16
     -7.80000000000000E-01  -7.80000000000000E-01   0.00000000000000E+00   0.00000000000000E+00  -7.86327566859958E-25
     -1.60482205487774E-03  -1.60482205487774E-03  -1.69252608076096E-03   4.34335904723317E-05  -1.25314840989825E-16
      4.44000000000000E-07
     -7.80000000000000E-01  -7.80000000000000E-01   0.00000000000000E+00   0.00000000000000E+00   0.00000000000000E+00
      0.00000000000000E+00   0.00000000000000E+00   0.00000000000000E+00   0.00000000000000E+00  -3.15365157890181E-16
      0.00000000000000E+00   0.00000000000000E+00   0.00000000000000E+00   0.00000000000000E+00  -7.56615363671807E-25
      1.63667691738890E-03   1.63667691738890E-03   1.67999693420622E-03   4.44454884180272E-05   1.57643142294309E-16