DF-ISE text

Info {
  version   = 1.0
  type      = xyplot
  datasets  = [
    "time"
    "gate OuterVoltage" "gate InnerVoltage" "gate QuasiFermiPotential" "gate DisplacementCurrent" "gate eCurrent"
    "gate hCurrent" "gate TotalCurrent" "gate Charge" "source OuterVoltage" "source InnerVoltage"
    "source QuasiFermiPotential" "source DisplacementCurrent" "source eCurrent" "source hCurrent" "source TotalCurrent"
    "source Charge" "drain OuterVoltage" "drain InnerVoltage" "drain QuasiFermiPotential" "drain DisplacementCurrent"
    "drain eCurrent" "drain hCurrent" "drain TotalCurrent" "drain Charge" ]
  functions = [
    Time
    OuterVoltage InnerVoltage QuasiFermiPotential DisplacementCurrent eCurrent
    hCurrent TotalCurrent Charge OuterVoltage InnerVoltage
    QuasiFermiPotential DisplacementCurrent eCurrent hCurrent TotalCurrent
    Charge OuterVoltage InnerVoltage QuasiFermiPotential DisplacementCurrent
    eCurrent hCurrent TotalCurrent Charge ]
}

Data {
      0.00000000000000E+00
      0.00000000000000E+00   0.00000000000000E+00   0.00000000000000E+00   0.00000000000000E+00   0.00000000000000E+00
      0.00000000000000E+00   0.00000000000000E+00  -4.65299933569139E-16   0.00000000000000E+00   0.00000000000000E+00
      0.00000000000000E+00   0.00000000000000E+00  -6.18353670800210E-08  -7.48721397367770E-28  -6.18353670800210E-08
      1.08933657572059E-16   7.00000000000000E-01   7.00000000000000E-01   0.00000000000000E+00   0.00000000000000E+00
      6.18353670799338E-08  -1.81890764523227E-25   6.18353670799338E-08   3.57578990721152E-16
      1.66666666666667E-02
      1.16666666666667E-02   1.16666666666667E-02   0.00000000000000E+00   0.00000000000000E+00   0.00000000000000E+00
      0.00000000000000E+00   0.00000000000000E+00  -4.56964688839236E-16   0.00000000000000E+00   0.00000000000000E+00
      0.00000000000000E+00   0.00000000000000E+00  -9.23597920023857E-08  -1.96950561884412E-20  -9.23597920024054E-08
      1.04576274489102E-16   7.00000000000000E-01   7.00000000000000E-01   0.00000000000000E+00   0.00000000000000E+00
      9.23599732235886E-08   9.48310466852201E-20   9.23599732236834E-08   3.53615741623031E-16
      3.33333333333333E-02
      2.33333333333333E-02   2.33333333333333E-02   0.00000000000000E+00   0.00000000000000E+00   0.00000000000000E+00
      0.00000000000000E+00   0.00000000000000E+00  -4.48608307349855E-16   0.00000000000000E+00   0.00000000000000E+00
      0.00000000000000E+00   0.00000000000000E+00  -1.37808634008632E-07  -3.05478482613077E-20  -1.37808634008662E-07
      1.00206404305495E-16   7.00000000000000E-01   7.00000000000000E-01   0.00000000000000E+00   0.00000000000000E+00
      1.37809555875354E-07   1.78623078716899E-19   1.37809555875533E-07   3.49648563645179E-16
      5.00000000000000E-02
      3.50000000000000E-02   3.50000000000000E-02   0.00000000000000E+00   0.00000000000000E+00   0.00000000000000E+00
      0.00000000000000E+00   0.00000000000000E+00  -4.40229033448152E-16   0.00000000000000E+00   0.00000000000000E+00
      0.00000000000000E+00   0.00000000000000E+00  -2.05381812009481E-07   1.02323171238709E-22  -2.05381812009481E-07
      9.58239094098186E-17   7.00000000000000E-01   7.00000000000000E-01   0.00000000000000E+00   0.00000000000000E+00
      2.05381813915321E-07   7.01956029985827E-20   2.05381813915391E-07   3.45677444976868E-16
      6.66666666666667E-02
      4.66666666666667E-02   4.66666666666667E-02   0.00000000000000E+00   0.00000000000000E+00   0.00000000000000E+00
      0.00000000000000E+00   0.00000000000000E+00  -4.31824649618059E-16   0.00000000000000E+00   0.00000000000000E+00
      0.00000000000000E+00   0.00000000000000E+00  -3.05671397376740E-07   3.78545521911160E-23  -3.05671397376740E-07
      9.14287523591125E-17   7.00000000000000E-01   7.00000000000000E-01   0.00000000000000E+00   0.00000000000000E+00
      3.05671398762342E-07   6.20931924173443E-20   3.05671398762404E-07   3.41702382205028E-16
      8.33333333333333E-02
      5.83333333333333E-02   5.83333333333333E-02   0.00000000000000E+00   0.00000000000000E+00   0.00000000000000E+00
      0.00000000000000E+00   0.00000000000000E+00  -4.23392312577061E-16   0.00000000000000E+00   0.00000000000000E+00
      0.00000000000000E+00   0.00000000000000E+00  -4.54213959550867E-07   5.99241870656993E-23  -4.54213959550867E-07
      8.70210342779183E-17   7.00000000000000E-01   7.00000000000000E-01   0.00000000000000E+00   0.00000000000000E+00
      4.54213960852588E-07   4.77735961006277E-20   4.54213960852636E-07   3.37723384155113E-16
      1.00000000000000E-01
      7.00000000000000E-02   7.00000000000000E-02   0.00000000000000E+00   0.00000000000000E+00   0.00000000000000E+00
      0.00000000000000E+00   0.00000000000000E+00  -4.14928331560286E-16   0.00000000000000E+00   0.00000000000000E+00
      0.00000000000000E+00   0.00000000000000E+00  -6.73681801589075E-07   6.79485854061956E-23  -6.73681801589075E-07
      8.26010447054502E-17   7.00000000000000E-01   7.00000000000000E-01   0.00000000000000E+00   0.00000000000000E+00
      6.73681802845939E-07   2.51746590525458E-20   6.73681802845964E-07   3.33740477341328E-16
      1.16666666666667E-01
      8.16666666666667E-02   8.16666666666667E-02   0.00000000000000E+00   0.00000000000000E+00   0.00000000000000E+00
      0.00000000000000E+00   0.00000000000000E+00  -4.06427871038224E-16   0.00000000000000E+00   0.00000000000000E+00
      0.00000000000000E+00   0.00000000000000E+00  -9.96961158085341E-07   1.50650227375039E-23  -9.96961158085341E-07
      7.81693242352577E-17   7.00000000000000E-01   7.00000000000000E-01   0.00000000000000E+00   0.00000000000000E+00
      9.96961159194923E-07   6.57113070848969E-21   9.96961159194929E-07   3.29753713432847E-16
      1.33333333333333E-01
      9.33333333333333E-02   9.33333333333333E-02   0.00000000000000E+00   0.00000000000000E+00   0.00000000000000E+00
      0.00000000000000E+00   0.00000000000000E+00  -3.97884559672060E-16   0.00000000000000E+00   0.00000000000000E+00
      0.00000000000000E+00   0.00000000000000E+00  -1.47138043231370E-06  -3.36883687600451E-24  -1.47138043231370E-06
      7.37267415919750E-17   7.00000000000000E-01   7.00000000000000E-01   0.00000000000000E+00   0.00000000000000E+00
      1.47138043395314E-06   6.31705654179839E-22   1.47138043395314E-06   3.25763178953474E-16
      1.50000000000000E-01
      1.05000000000000E-01   1.05000000000000E-01   0.00000000000000E+00   0.00000000000000E+00   0.00000000000000E+00
      0.00000000000000E+00   0.00000000000000E+00  -3.89289990044640E-16   0.00000000000000E+00   0.00000000000000E+00
      0.00000000000000E+00   0.00000000000000E+00  -2.16436177975762E-06  -5.73285988665406E-25  -2.16436177975762E-06
      6.92745850126076E-17   7.00000000000000E-01   7.00000000000000E-01   0.00000000000000E+00   0.00000000000000E+00
      2.16436178236128E-06   1.19450465064219E-23   2.16436178236128E-06   3.21769007144060E-16
      1.66666666666667E-01
      1.16666666666667E-01   1.16666666666667E-01   0.00000000000000E+00   0.00000000000000E+00   0.00000000000000E+00
      0.00000000000000E+00   0.00000000000000E+00  -3.80633107222068E-16   0.00000000000000E+00   0.00000000000000E+00
      0.00000000000000E+00   0.00000000000000E+00  -3.17068489573307E-06   3.06367715815718E-24  -3.17068489573307E-06
      6.48146647186456E-17   7.00000000000000E-01   7.00000000000000E-01   0.00000000000000E+00   0.00000000000000E+00
      3.17068490284558E-06   1.39854009785628E-23   3.17068490284558E-06   3.17771392497016E-16
      1.83333333333333E-01
      1.28333333333333E-01   1.28333333333333E-01   0.00000000000000E+00   0.00000000000000E+00   0.00000000000000E+00
      0.00000000000000E+00   0.00000000000000E+00  -3.71899511369627E-16   0.00000000000000E+00   0.00000000000000E+00
      0.00000000000000E+00   0.00000000000000E+00  -4.62130257601117E-06   6.31354361149328E-24  -4.62130257601117E-06
      6.03494178532420E-17   7.00000000000000E-01   7.00000000000000E-01   0.00000000000000E+00   0.00000000000000E+00
      4.62130259892384E-06   2.12198196621899E-23   4.62130259892384E-06   3.13770607917729E-16
      2.00000000000000E-01
      1.40000000000000E-01   1.40000000000000E-01   0.00000000000000E+00   0.00000000000000E+00   0.00000000000000E+00
      0.00000000000000E+00   0.00000000000000E+00  -3.63070746322347E-16   0.00000000000000E+00   0.00000000000000E+00
      0.00000000000000E+00   0.00000000000000E+00  -6.69313558609345E-06   7.82890413964927E-24  -6.69313558609345E-06
      5.58819991483517E-17   7.00000000000000E-01   7.00000000000000E-01   0.00000000000000E+00   0.00000000000000E+00
      6.69313565533350E-06   2.52606714967745E-23   6.69313565533350E-06   3.09767022379133E-16
      2.16666666666667E-01
      1.51666666666667E-01   1.51666666666667E-01   0.00000000000000E+00   0.00000000000000E+00   0.00000000000000E+00
      0.00000000000000E+00   0.00000000000000E+00  -3.54123717157087E-16   0.00000000000000E+00   0.00000000000000E+00
      0.00000000000000E+00   0.00000000000000E+00  -9.61843928079067E-06   2.72716743274777E-24  -9.61843928079067E-06
      5.14163305664513E-17   7.00000000000000E-01   7.00000000000000E-01   0.00000000000000E+00   0.00000000000000E+00
      9.61843946769387E-06   2.88530518830929E-23   9.61843946769387E-06   3.05761115477699E-16
      2.33333333333333E-01
      1.63333333333333E-01   1.63333333333333E-01   0.00000000000000E+00   0.00000000000000E+00   0.00000000000000E+00
      0.00000000000000E+00   0.00000000000000E+00  -3.45030459510352E-16   0.00000000000000E+00   0.00000000000000E+00
      0.00000000000000E+00   0.00000000000000E+00  -1.36912814095554E-05   5.86010950731508E-24  -1.36912814095554E-05
      4.69570746803148E-17   7.00000000000000E-01   7.00000000000000E-01   0.00000000000000E+00   0.00000000000000E+00
      1.36912818585526E-05   3.00971878351722E-23   1.36912818585526E-05   3.01753483956605E-16
      2.50000000000000E-01
      1.75000000000000E-01   1.75000000000000E-01   0.00000000000000E+00   0.00000000000000E+00   0.00000000000000E+00
      0.00000000000000E+00   0.00000000000000E+00  -3.35758526740117E-16   0.00000000000000E+00   0.00000000000000E+00
      0.00000000000000E+00   0.00000000000000E+00  -1.92678630493816E-05   4.13313965032569E-24  -1.92678630493816E-05
      4.25094965299983E-17   7.00000000000000E-01   7.00000000000000E-01   0.00000000000000E+00   0.00000000000000E+00
      1.92678640011317E-05  -2.05455430737928E-23   1.92678640011317E-05   2.97744834678325E-16
      2.66666666666667E-01
      1.86666666666667E-01   1.86666666666667E-01   0.00000000000000E+00   0.00000000000000E+00   0.00000000000000E+00
      0.00000000000000E+00   0.00000000000000E+00  -3.26272192514237E-16   0.00000000000000E+00   0.00000000000000E+00
      0.00000000000000E+00   0.00000000000000E+00  -2.67577935846563E-05   1.97700527829010E-25  -2.67577935846563E-05
      3.80791974962969E-17   7.00000000000000E-01   7.00000000000000E-01   0.00000000000000E+00   0.00000000000000E+00
      2.67577953588932E-05   1.35731002315416E-23   2.67577953588932E-05   2.93735960216069E-16
      2.83333333333333E-01
      1.98333333333333E-01   1.98333333333333E-01   0.00000000000000E+00   0.00000000000000E+00   0.00000000000000E+00
      0.00000000000000E+00   0.00000000000000E+00  -3.16534398391502E-16   0.00000000000000E+00   0.00000000000000E+00
      0.00000000000000E+00   0.00000000000000E+00  -3.66062402850154E-05  -7.57811278565923E-25  -3.66062402850154E-05
      3.36717477371909E-17   7.00000000000000E-01   7.00000000000000E-01   0.00000000000000E+00   0.00000000000000E+00
      3.66062431798523E-05   3.73595667299253E-24   3.66062431798523E-05   2.89727697047544E-16
      3.00000000000000E-01
      2.10000000000000E-01   2.10000000000000E-01   0.00000000000000E+00   0.00000000000000E+00   0.00000000000000E+00
      0.00000000000000E+00   0.00000000000000E+00  -3.06508842988919E-16   0.00000000000000E+00   0.00000000000000E+00
      0.00000000000000E+00   0.00000000000000E+00  -4.92734256814674E-05   5.29428534369824E-25  -4.92734256814674E-05
      2.92923110253509E-17   7.00000000000000E-01   7.00000000000000E-01   0.00000000000000E+00   0.00000000000000E+00
      4.92734298251692E-05   1.71055085594009E-24   4.92734298251692E-05   2.85720872278444E-16
      3.16666666666667E-01
      2.21666666666667E-01   2.21666666666667E-01   0.00000000000000E+00   0.00000000000000E+00   0.00000000000000E+00
      0.00000000000000E+00   0.00000000000000E+00  -2.96160527717289E-16   0.00000000000000E+00   0.00000000000000E+00
      0.00000000000000E+00   0.00000000000000E+00  -6.52328240973434E-05   7.06414770887271E-25  -6.52328240973434E-05
      2.49454600368537E-17   7.00000000000000E-01   7.00000000000000E-01   0.00000000000000E+00   0.00000000000000E+00
      6.52328293964275E-05   8.77174655514322E-25   6.52328293964275E-05   2.81716270833330E-16
      3.33333333333333E-01
      2.33333333333333E-01   2.33333333333333E-01   0.00000000000000E+00   0.00000000000000E+00   0.00000000000000E+00
      0.00000000000000E+00   0.00000000000000E+00  -2.85447318031011E-16   0.00000000000000E+00   0.00000000000000E+00
      0.00000000000000E+00   0.00000000000000E+00  -8.50895692637261E-05   7.53056856714244E-26  -8.50895692637261E-05
      2.06358807235996E-17   7.00000000000000E-01   7.00000000000000E-01   0.00000000000000E+00   0.00000000000000E+00
      8.50895756694883E-05   2.36378749363388E-25   8.50895756694883E-05   2.77714815407012E-16
      3.50000000000000E-01
      2.45000000000000E-01   2.45000000000000E-01   0.00000000000000E+00   0.00000000000000E+00   0.00000000000000E+00
      0.00000000000000E+00   0.00000000000000E+00  -2.74481983539613E-16   0.00000000000000E+00   0.00000000000000E+00
      0.00000000000000E+00   0.00000000000000E+00  -1.07421771735270E-04   1.44468787979596E-24  -1.07421771735270E-04
      1.63539243896230E-17   7.00000000000000E-01   7.00000000000000E-01   0.00000000000000E+00   0.00000000000000E+00
      1.07421784884231E-04  -7.73959785101108E-25   1.07421784884231E-04   2.73713532904745E-16
      3.66666666666667E-01
      2.56666666666667E-01   2.56666666666667E-01   0.00000000000000E+00   0.00000000000000E+00   0.00000000000000E+00
      0.00000000000000E+00   0.00000000000000E+00  -2.63281021543032E-16   0.00000000000000E+00   0.00000000000000E+00
      0.00000000000000E+00   0.00000000000000E+00  -1.31957260971949E-04   1.43367106504449E-24  -1.31957260971949E-04
      1.20955871231219E-17   7.00000000000000E-01   7.00000000000000E-01   0.00000000000000E+00   0.00000000000000E+00
      1.31957261192165E-04  -8.91155349378183E-26   1.31957261192165E-04   2.69711928690906E-16
      3.83333333333333E-01
      2.68333333333333E-01   2.68333333333333E-01   0.00000000000000E+00   0.00000000000000E+00   0.00000000000000E+00
      0.00000000000000E+00   0.00000000000000E+00  -2.51765025501455E-16   0.00000000000000E+00   0.00000000000000E+00
      0.00000000000000E+00   0.00000000000000E+00  -1.59628862647904E-04   3.71961960575014E-25  -1.59628862647904E-04
      7.87142018571538E-18   7.00000000000000E-01   7.00000000000000E-01   0.00000000000000E+00   0.00000000000000E+00
      1.59628867867828E-04  -5.16724319412981E-27   1.59628867867828E-04   2.65711677477438E-16
      4.00000000000000E-01
      2.80000000000000E-01   2.80000000000000E-01   0.00000000000000E+00   0.00000000000000E+00   0.00000000000000E+00
      0.00000000000000E+00   0.00000000000000E+00  -2.39944803167283E-16   0.00000000000000E+00   0.00000000000000E+00
      0.00000000000000E+00   0.00000000000000E+00  -1.90350401373355E-04   8.13778309249897E-26  -1.90350401373355E-04
      3.67907598765299E-18   7.00000000000000E-01   7.00000000000000E-01   0.00000000000000E+00   0.00000000000000E+00
      1.90350404338612E-04   4.64564998046431E-27   1.90350404338612E-04   2.61712408755986E-16
      4.16666666666667E-01
      2.91666666666667E-01   2.91666666666667E-01   0.00000000000000E+00   0.00000000000000E+00   0.00000000000000E+00
      0.00000000000000E+00   0.00000000000000E+00  -2.27833333071015E-16   0.00000000000000E+00   0.00000000000000E+00
      0.00000000000000E+00   0.00000000000000E+00  -2.23992129421794E-04  -8.09334071090779E-25  -2.23992129421794E-04
     -4.83603919784362E-19   7.00000000000000E-01   7.00000000000000E-01   0.00000000000000E+00   0.00000000000000E+00
      2.23992131354321E-04   3.34845373291028E-27   2.23992131354321E-04   2.57713680595393E-16
      4.33333333333333E-01
      3.03333333333333E-01   3.03333333333333E-01   0.00000000000000E+00   0.00000000000000E+00   0.00000000000000E+00
      0.00000000000000E+00   0.00000000000000E+00  -2.15445207900067E-16   0.00000000000000E+00   0.00000000000000E+00
      0.00000000000000E+00   0.00000000000000E+00  -2.60397109341679E-04  -1.33512273330620E-24  -2.60397109341679E-04
     -4.61874491940378E-18   7.00000000000000E-01   7.00000000000000E-01   0.00000000000000E+00   0.00000000000000E+00
      2.60397110626846E-04   1.99762619150132E-27   2.60397110626846E-04   2.53715007114497E-16
      4.50000000000000E-01
      3.15000000000000E-01   3.15000000000000E-01   0.00000000000000E+00   0.00000000000000E+00   0.00000000000000E+00
      0.00000000000000E+00   0.00000000000000E+00  -2.02795337149470E-16   0.00000000000000E+00   0.00000000000000E+00
      0.00000000000000E+00   0.00000000000000E+00  -2.99397932408584E-04  -1.17390185478696E-24  -2.99397932408584E-04
     -8.72843264349501E-18   7.00000000000000E-01   7.00000000000000E-01   0.00000000000000E+00   0.00000000000000E+00
      2.99397933321114E-04   1.10721728727496E-27   2.99397933321114E-04   2.49715893936339E-16
      4.66666666666667E-01
      3.26666666666667E-01   3.26666666666667E-01   0.00000000000000E+00   0.00000000000000E+00   0.00000000000000E+00
      0.00000000000000E+00   0.00000000000000E+00  -1.89898517745376E-16   0.00000000000000E+00   0.00000000000000E+00
      0.00000000000000E+00   0.00000000000000E+00  -3.40828563222865E-04  -1.47363355359114E-24  -3.40828563222865E-04
     -1.28146636347982E-17   7.00000000000000E-01   7.00000000000000E-01   0.00000000000000E+00   0.00000000000000E+00
      3.40828563893018E-04   6.23889131247023E-28   3.40828563893018E-04   2.45715841293153E-16
      4.83333333333333E-01
      3.38333333333333E-01   3.38333333333333E-01   0.00000000000000E+00   0.00000000000000E+00   0.00000000000000E+00
      0.00000000000000E+00   0.00000000000000E+00  -1.76768495645877E-16   0.00000000000000E+00   0.00000000000000E+00
      0.00000000000000E+00   0.00000000000000E+00  -3.84525266139332E-04  -1.39628979207928E-24  -3.84525266139332E-04
     -1.68792698492579E-17   7.00000000000000E-01   7.00000000000000E-01   0.00000000000000E+00   0.00000000000000E+00
      3.84525266648870E-04   3.44722010256103E-28   3.84525266648870E-04   2.41714395539975E-16
      5.00000000000000E-01
      3.50000000000000E-01   3.50000000000000E-01   0.00000000000000E+00   0.00000000000000E+00   0.00000000000000E+00
      0.00000000000000E+00   0.00000000000000E+00  -1.63418640430470E-16   0.00000000000000E+00   0.00000000000000E+00
      0.00000000000000E+00   0.00000000000000E+00  -4.30335199312811E-04  -1.10356361098651E-24  -4.30335199312811E-04
     -2.09239744777879E-17   7.00000000000000E-01   7.00000000000000E-01   0.00000000000000E+00   0.00000000000000E+00
      4.30335199697139E-04   1.96133054458903E-28   4.30335199697139E-04   2.37711103646554E-16
      5.16666666666667E-01
      3.61666666666667E-01   3.61666666666667E-01   0.00000000000000E+00   0.00000000000000E+00   0.00000000000000E+00
      0.00000000000000E+00   0.00000000000000E+00  -1.49861028938831E-16   0.00000000000000E+00   0.00000000000000E+00
      0.00000000000000E+00   0.00000000000000E+00  -4.78112892597015E-04   6.95130752229471E-27  -4.78112892597015E-04
     -2.49503663756291E-17   7.00000000000000E-01   7.00000000000000E-01   0.00000000000000E+00   0.00000000000000E+00
      4.78112892896705E-04   1.09197849810097E-28   4.78112892896705E-04   2.33705570464359E-16
      5.33333333333333E-01
      3.73333333333333E-01   3.73333333333333E-01   0.00000000000000E+00   0.00000000000000E+00   0.00000000000000E+00
      0.00000000000000E+00   0.00000000000000E+00  -1.36107573196874E-16   0.00000000000000E+00   0.00000000000000E+00
      0.00000000000000E+00   0.00000000000000E+00  -5.27724332702719E-04  -6.71377162786077E-26  -5.27724332702719E-04
     -2.89599094244464E-17   7.00000000000000E-01   7.00000000000000E-01   0.00000000000000E+00   0.00000000000000E+00
      5.27724332951032E-04   6.09336397411395E-29   5.27724332951032E-04   2.29697379058823E-16
      5.50000000000000E-01
      3.85000000000000E-01   3.85000000000000E-01   0.00000000000000E+00   0.00000000000000E+00   0.00000000000000E+00
      0.00000000000000E+00   0.00000000000000E+00  -1.22168877085206E-16   0.00000000000000E+00   0.00000000000000E+00
      0.00000000000000E+00   0.00000000000000E+00  -5.79042681095513E-04  -9.01209206909845E-26  -5.79042681095513E-04
     -3.29539521734009E-17   7.00000000000000E-01   7.00000000000000E-01   0.00000000000000E+00   0.00000000000000E+00
      5.79042681295401E-04   3.20326556710984E-29   5.79042681295401E-04   2.25686193835082E-16
      5.66666666666667E-01
      3.96666666666667E-01   3.96666666666667E-01   0.00000000000000E+00   0.00000000000000E+00   0.00000000000000E+00
      0.00000000000000E+00   0.00000000000000E+00  -1.08055015610032E-16   0.00000000000000E+00   0.00000000000000E+00
      0.00000000000000E+00   0.00000000000000E+00  -6.31950373344446E-04  -8.45959882583713E-26  -6.31950373344446E-04
     -3.69337517225069E-17   7.00000000000000E-01   7.00000000000000E-01   0.00000000000000E+00   0.00000000000000E+00
      6.31950373507228E-04   1.67501914773208E-29   6.31950373507228E-04   2.21671691157461E-16
      5.83333333333333E-01
      4.08333333333333E-01   4.08333333333333E-01   0.00000000000000E+00   0.00000000000000E+00   0.00000000000000E+00
      0.00000000000000E+00   0.00000000000000E+00  -9.37755896085962E-17   0.00000000000000E+00   0.00000000000000E+00
      0.00000000000000E+00   0.00000000000000E+00  -6.86337378669866E-04  -1.52921865641524E-26  -6.86337378669866E-04
     -4.09004604057611E-17   7.00000000000000E-01   7.00000000000000E-01   0.00000000000000E+00   0.00000000000000E+00
      6.86337378807406E-04   8.85779048218766E-30   6.86337378807406E-04   2.17653565282771E-16
      6.00000000000000E-01
      4.20000000000000E-01   4.20000000000000E-01   0.00000000000000E+00   0.00000000000000E+00   0.00000000000000E+00
      0.00000000000000E+00   0.00000000000000E+00  -7.93394825921875E-17   0.00000000000000E+00   0.00000000000000E+00
      0.00000000000000E+00   0.00000000000000E+00  -7.42101447399782E-04  -4.90424275188392E-27  -7.42101447399782E-04
     -4.48551809655243E-17   7.00000000000000E-01   7.00000000000000E-01   0.00000000000000E+00   0.00000000000000E+00
      7.42101447516805E-04   4.35325465658561E-30   7.42101447516805E-04   2.13631541664486E-16
      6.16666666666667E-01
      4.31666666666667E-01   4.31666666666667E-01   0.00000000000000E+00   0.00000000000000E+00   0.00000000000000E+00
      0.00000000000000E+00   0.00000000000000E+00  -6.47551818103953E-17   0.00000000000000E+00   0.00000000000000E+00
      0.00000000000000E+00   0.00000000000000E+00  -7.99145944660667E-04  -1.91785999707643E-26  -7.99145944660667E-04
     -4.87989159554003E-17   7.00000000000000E-01   7.00000000000000E-01   0.00000000000000E+00   0.00000000000000E+00
      7.99145944760649E-04   2.22731079306487E-30   7.99145944760649E-04   2.09605375840719E-16
      6.33333333333334E-01
      4.43333333333334E-01   4.43333333333334E-01   0.00000000000000E+00   0.00000000000000E+00   0.00000000000000E+00
      0.00000000000000E+00   0.00000000000000E+00  -5.00305902125876E-17   0.00000000000000E+00   0.00000000000000E+00
      0.00000000000000E+00   0.00000000000000E+00  -8.57380925672909E-04   1.27003206833331E-27  -8.57380925672909E-04
     -5.27326317902862E-17   7.00000000000000E-01   7.00000000000000E-01   0.00000000000000E+00   0.00000000000000E+00
      8.57380925760730E-04   1.26808555188102E-30   8.57380925760730E-04   2.05574848708089E-16
      6.50000000000000E-01
      4.55000000000000E-01   4.55000000000000E-01   0.00000000000000E+00   0.00000000000000E+00   0.00000000000000E+00
      0.00000000000000E+00   0.00000000000000E+00  -3.51732275446299E-17   0.00000000000000E+00   0.00000000000000E+00
      0.00000000000000E+00   0.00000000000000E+00  -9.16721520873352E-04   8.01871654074993E-29  -9.16721520873352E-04
     -5.66572242233388E-17   7.00000000000000E-01   7.00000000000000E-01   0.00000000000000E+00   0.00000000000000E+00
      9.16721520950194E-04   8.26077203751264E-31   9.16721520950194E-04   2.01539765638365E-16
      6.66666666666667E-01
      4.66666666666667E-01   4.66666666666667E-01   0.00000000000000E+00   0.00000000000000E+00   0.00000000000000E+00
      0.00000000000000E+00   0.00000000000000E+00  -2.01901378319053E-17   0.00000000000000E+00   0.00000000000000E+00
      0.00000000000000E+00   0.00000000000000E+00  -9.77087330503971E-04  -1.22039930098990E-28  -9.77087330503971E-04
     -6.05735260027975E-17   7.00000000000000E-01   7.00000000000000E-01   0.00000000000000E+00   0.00000000000000E+00
      9.77087330571692E-04   4.74720383233801E-31   9.77087330571692E-04   1.97499976449613E-16
      6.83333333333334E-01
      4.78333333333334E-01   4.78333333333334E-01   0.00000000000000E+00   0.00000000000000E+00   0.00000000000000E+00
      0.00000000000000E+00   0.00000000000000E+00  -5.08797751914933E-18   0.00000000000000E+00   0.00000000000000E+00
      0.00000000000000E+00   0.00000000000000E+00  -1.03840293753146E-03  -1.50230227317345E-28  -1.03840293753146E-03
     -6.44823270407562E-17   7.00000000000000E-01   7.00000000000000E-01   0.00000000000000E+00   0.00000000000000E+00
      1.03840293759121E-03   2.62696475101164E-31   1.03840293759121E-03   1.93455362190025E-16
      7.00000000000001E-01
      4.90000000000000E-01   4.90000000000000E-01   0.00000000000000E+00   0.00000000000000E+00   0.00000000000000E+00
      0.00000000000000E+00   0.00000000000000E+00   1.01268138349004E-17   0.00000000000000E+00   0.00000000000000E+00
      0.00000000000000E+00   0.00000000000000E+00  -1.10059790595159E-03   3.36055551147582E-29  -1.10059790595159E-03
     -6.83843766437176E-17   7.00000000000000E-01   7.00000000000000E-01   0.00000000000000E+00   0.00000000000000E+00
      1.10059790600496E-03   1.01229024747452E-31   1.10059790600496E-03   1.89405793283589E-16
      7.16666666666667E-01
      5.01666666666667E-01   5.01666666666667E-01   0.00000000000000E+00   0.00000000000000E+00   0.00000000000000E+00
      0.00000000000000E+00   0.00000000000000E+00   2.54480019953695E-17   0.00000000000000E+00   0.00000000000000E+00
      0.00000000000000E+00   0.00000000000000E+00  -1.16360601476232E-03  -9.02635651863546E-29  -1.16360601476232E-03
     -7.22803753773694E-17   7.00000000000000E-01   7.00000000000000E-01   0.00000000000000E+00   0.00000000000000E+00
      1.16360601480954E-03   8.25324122549758E-33   1.16360601480954E-03   1.85351111024660E-16
      7.33333333333334E-01
      5.13333333333334E-01   5.13333333333334E-01   0.00000000000000E+00   0.00000000000000E+00   0.00000000000000E+00
      0.00000000000000E+00   0.00000000000000E+00   4.08701366359151E-17   0.00000000000000E+00   0.00000000000000E+00
      0.00000000000000E+00   0.00000000000000E+00  -1.22736375550297E-03  -6.10133167953319E-29  -1.22736375550297E-03
     -7.61709752994131E-17   7.00000000000000E-01   7.00000000000000E-01   0.00000000000000E+00   0.00000000000000E+00
      1.22736375554538E-03  -2.56631945667786E-32   1.22736375554538E-03   1.81291286198209E-16
      7.50000000000001E-01
      5.25000000000000E-01   5.25000000000000E-01   0.00000000000000E+00   0.00000000000000E+00   0.00000000000000E+00
      0.00000000000000E+00   0.00000000000000E+00   5.63879787410953E-17   0.00000000000000E+00   0.00000000000000E+00
      0.00000000000000E+00   0.00000000000000E+00  -1.29181173505904E-03   5.97929735598881E-29  -1.29181173505904E-03
     -8.00567898595744E-17   7.00000000000000E-01   7.00000000000000E-01   0.00000000000000E+00   0.00000000000000E+00
      1.29181173509730E-03  -4.17604445413184E-32   1.29181173509730E-03   1.77226328571318E-16
      7.66666666666667E-01
      5.36666666666667E-01   5.36666666666667E-01   0.00000000000000E+00   0.00000000000000E+00   0.00000000000000E+00
      0.00000000000000E+00   0.00000000000000E+00   7.19963948264986E-17   0.00000000000000E+00   0.00000000000000E+00
      0.00000000000000E+00   0.00000000000000E+00  -1.35689446784604E-03   1.90814928978877E-27  -1.35689446784604E-03
     -8.39383941989833E-17   7.00000000000000E-01   7.00000000000000E-01   0.00000000000000E+00   0.00000000000000E+00
      1.35689446788035E-03  -5.28834212555482E-32   1.35689446788035E-03   1.73156186047912E-16
      7.83333333333334E-01
      5.48333333333334E-01   5.48333333333334E-01   0.00000000000000E+00   0.00000000000000E+00   0.00000000000000E+00
      0.00000000000000E+00   0.00000000000000E+00   8.76903457986797E-17   0.00000000000000E+00   0.00000000000000E+00
      0.00000000000000E+00   0.00000000000000E+00  -1.42256015285431E-03   6.92429598878922E-29  -1.42256015285431E-03
     -8.78163252046394E-17   7.00000000000000E-01   7.00000000000000E-01   0.00000000000000E+00   0.00000000000000E+00
      1.42256015288534E-03  -4.94313010063102E-32   1.42256015288534E-03   1.69080730997219E-16
      8.00000000000001E-01
      5.60000000000000E-01   5.60000000000000E-01   0.00000000000000E+00   0.00000000000000E+00   0.00000000000000E+00
      0.00000000000000E+00   0.00000000000000E+00   1.03465781865785E-16   0.00000000000000E+00   0.00000000000000E+00