DF-ISE text

Info {
  version   = 1.0
  type      = xyplot
  datasets  = [
    "time"
    "gate OuterVoltage" "gate InnerVoltage" "gate QuasiFermiPotential" "gate DisplacementCurrent" "gate eCurrent"
    "gate hCurrent" "gate TotalCurrent" "gate Charge" "source OuterVoltage" "source InnerVoltage"
    "source QuasiFermiPotential" "source DisplacementCurrent" "source eCurrent" "source hCurrent" "source TotalCurrent"
    "source Charge" "drain OuterVoltage" "drain InnerVoltage" "drain QuasiFermiPotential" "drain DisplacementCurrent"
    "drain eCurrent" "drain hCurrent" "drain TotalCurrent" "drain Charge" ]
  functions = [
    Time
    OuterVoltage InnerVoltage QuasiFermiPotential DisplacementCurrent eCurrent
    hCurrent TotalCurrent Charge OuterVoltage InnerVoltage
    QuasiFermiPotential DisplacementCurrent eCurrent hCurrent TotalCurrent
    Charge OuterVoltage InnerVoltage QuasiFermiPotential DisplacementCurrent
    eCurrent hCurrent TotalCurrent Charge ]
}

Data {
      0.00000000000000E+00
      0.00000000000000E+00   0.00000000000000E+00   0.00000000000000E+00   0.00000000000000E+00   0.00000000000000E+00
      0.00000000000000E+00   0.00000000000000E+00  -1.84929510753255E-16   0.00000000000000E+00   0.00000000000000E+00
      0.00000000000000E+00   0.00000000000000E+00  -3.03078730189098E-07   2.10957924434774E-27  -3.03078730189098E-07
      8.34851799469325E-17   5.00000000000000E-02   5.00000000000000E-02   0.00000000000000E+00   0.00000000000000E+00
      3.03078730191614E-07   1.78474157474881E-27   3.03078730191614E-07   1.02836614421537E-16
      1.66666666666667E-02
      1.30000000000000E-02   1.30000000000000E-02   0.00000000000000E+00   0.00000000000000E+00   0.00000000000000E+00
      0.00000000000000E+00   0.00000000000000E+00  -1.74995463277651E-16   0.00000000000000E+00   0.00000000000000E+00
      0.00000000000000E+00   0.00000000000000E+00  -4.74026895548961E-07  -2.68779500148729E-26  -4.74026895548961E-07
      7.85386869433621E-17   5.00000000000000E-02   5.00000000000000E-02   0.00000000000000E+00   0.00000000000000E+00
      4.74027660677842E-07  -2.16900682284220E-26   4.74027660677842E-07   9.79304696176912E-17
      3.33333333333333E-02
      2.60000000000000E-02   2.60000000000000E-02   0.00000000000000E+00   0.00000000000000E+00   0.00000000000000E+00
      0.00000000000000E+00   0.00000000000000E+00  -1.64998811801022E-16   0.00000000000000E+00   0.00000000000000E+00
      0.00000000000000E+00   0.00000000000000E+00  -7.39902934821355E-07  -4.76275749137547E-26  -7.39902934821355E-07
      7.35775310957813E-17   5.00000000000000E-02   5.00000000000000E-02   0.00000000000000E+00   0.00000000000000E+00
      7.39903907400629E-07  -1.03192534365099E-25   7.39903907400629E-07   9.30067874356405E-17
      5.00000000000000E-02
      3.90000000000000E-02   3.90000000000000E-02   0.00000000000000E+00   0.00000000000000E+00   0.00000000000000E+00
      0.00000000000000E+00   0.00000000000000E+00  -1.54928996650560E-16   0.00000000000000E+00   0.00000000000000E+00
      0.00000000000000E+00   0.00000000000000E+00  -1.15196399634375E-06  -7.84700082238927E-26  -1.15196399634375E-06
      6.86031525657187E-17   5.00000000000000E-02   5.00000000000000E-02   0.00000000000000E+00   0.00000000000000E+00
      1.15196400612411E-06  -1.28157943394828E-25   1.15196400612411E-06   8.80652928386053E-17
      6.66666666666667E-02
      5.20000000000000E-02   5.20000000000000E-02   0.00000000000000E+00   0.00000000000000E+00   0.00000000000000E+00
      0.00000000000000E+00   0.00000000000000E+00  -1.44771924582726E-16   0.00000000000000E+00   0.00000000000000E+00
      0.00000000000000E+00   0.00000000000000E+00  -1.78763003694879E-06   1.43966966857249E-26  -1.78763003694879E-06
      6.36177348439630E-17   5.00000000000000E-02   5.00000000000000E-02   0.00000000000000E+00   0.00000000000000E+00
      1.78763005368517E-06  -4.15837438999325E-26   1.78763005368517E-06   8.31059354797197E-17
      8.33333333333333E-02
      6.50000000000000E-02   6.50000000000000E-02   0.00000000000000E+00   0.00000000000000E+00   0.00000000000000E+00
      0.00000000000000E+00   0.00000000000000E+00  -1.34508741783787E-16   0.00000000000000E+00   0.00000000000000E+00
      0.00000000000000E+00   0.00000000000000E+00  -2.76222754826571E-06  -6.99210574885539E-27  -2.76222754826571E-06
      5.86244038255977E-17   5.00000000000000E-02   5.00000000000000E-02   0.00000000000000E+00   0.00000000000000E+00
      2.76222760186576E-06  -5.15800678931304E-27   2.76222760186576E-06   7.81290053510159E-17
      1.00000000000000E-01
      7.80000000000000E-02   7.80000000000000E-02   0.00000000000000E+00   0.00000000000000E+00   0.00000000000000E+00
      0.00000000000000E+00   0.00000000000000E+00  -1.24114362290178E-16   0.00000000000000E+00   0.00000000000000E+00
      0.00000000000000E+00   0.00000000000000E+00  -4.24428535716166E-06  -4.42409997306170E-26  -4.24428535716166E-06
      5.36274274773025E-17   5.00000000000000E-02   5.00000000000000E-02   0.00000000000000E+00   0.00000000000000E+00
      4.24428554806640E-06  -3.29667383877233E-26   4.24428554806640E-06   7.31352878088608E-17
      1.16666666666667E-01
      9.10000000000000E-02   9.10000000000000E-02   0.00000000000000E+00   0.00000000000000E+00   0.00000000000000E+00
      0.00000000000000E+00   0.00000000000000E+00  -1.13555905992343E-16   0.00000000000000E+00   0.00000000000000E+00
      0.00000000000000E+00   0.00000000000000E+00  -6.47375442848467E-06   1.02199594156564E-26  -6.47375442848467E-06
      4.86323686744893E-17   5.00000000000000E-02   5.00000000000000E-02   0.00000000000000E+00   0.00000000000000E+00
      6.47375502434992E-06  -8.12193033336992E-26   6.47375502434992E-06   6.81262578881082E-17
      1.33333333333333E-01
      1.04000000000000E-01   1.04000000000000E-01   0.00000000000000E+00   0.00000000000000E+00   0.00000000000000E+00
      0.00000000000000E+00   0.00000000000000E+00  -1.02791412283777E-16   0.00000000000000E+00   0.00000000000000E+00
      0.00000000000000E+00   0.00000000000000E+00  -9.78074215207331E-06  -4.85504396742241E-26  -9.78074215207331E-06
      4.36461155133965E-17   5.00000000000000E-02   5.00000000000000E-02   0.00000000000000E+00   0.00000000000000E+00
      9.78074377026720E-06  -3.08759387653079E-26   9.78074377026720E-06   6.31042996510080E-17
      1.50000000000000E-01
      1.17000000000000E-01   1.17000000000000E-01   0.00000000000000E+00   0.00000000000000E+00   0.00000000000000E+00
      0.00000000000000E+00   0.00000000000000E+00  -9.17694276286036E-17   0.00000000000000E+00   0.00000000000000E+00
      0.00000000000000E+00   0.00000000000000E+00  -1.46005192635981E-05  -1.06479214852203E-25  -1.46005192635981E-05
      3.86766955642561E-17   5.00000000000000E-02   5.00000000000000E-02   0.00000000000000E+00   0.00000000000000E+00
      1.46005230363969E-05  -8.38943857437242E-26   1.46005230363969E-05   5.80729118701611E-17
      1.66666666666667E-01
      1.30000000000000E-01   1.30000000000000E-01   0.00000000000000E+00   0.00000000000000E+00   0.00000000000000E+00
      0.00000000000000E+00   0.00000000000000E+00  -8.04300352249260E-17   0.00000000000000E+00   0.00000000000000E+00
      0.00000000000000E+00   0.00000000000000E+00  -2.14831376428827E-05  -2.06868067816135E-25  -2.14831376428827E-05
      3.37328121134742E-17   5.00000000000000E-02   5.00000000000000E-02   0.00000000000000E+00   0.00000000000000E+00
      2.14831449594173E-05  -1.39884840780565E-25   2.14831449594173E-05   5.30368443973665E-17
      1.83333333333333E-01
      1.43000000000000E-01   1.43000000000000E-01   0.00000000000000E+00   0.00000000000000E+00   0.00000000000000E+00
      0.00000000000000E+00   0.00000000000000E+00  -6.87074309234604E-17   0.00000000000000E+00   0.00000000000000E+00
      0.00000000000000E+00   0.00000000000000E+00  -3.11018682224510E-05  -5.27015173794411E-25  -3.11018682224510E-05
      2.88231669139862E-17   5.00000000000000E-02   5.00000000000000E-02   0.00000000000000E+00   0.00000000000000E+00
      3.11018892358843E-05  -2.52389056607307E-25   3.11018892358843E-05   4.80021064872162E-17
      2.00000000000000E-01
      1.56000000000000E-01   1.56000000000000E-01   0.00000000000000E+00   0.00000000000000E+00   0.00000000000000E+00
      0.00000000000000E+00   0.00000000000000E+00  -5.65664756117361E-17   0.00000000000000E+00   0.00000000000000E+00
      0.00000000000000E+00   0.00000000000000E+00  -4.33987017848917E-05  -1.26901328546779E-24  -4.33987017848917E-05
      2.39544765347239E-17   5.00000000000000E-02   5.00000000000000E-02   0.00000000000000E+00   0.00000000000000E+00
      4.33987344234419E-05  -5.46583526649487E-25   4.33987344234419E-05   4.29723517613829E-17
      2.16666666666667E-01
      1.69000000000000E-01   1.69000000000000E-01   0.00000000000000E+00   0.00000000000000E+00   0.00000000000000E+00
      0.00000000000000E+00   0.00000000000000E+00  -4.39689665119418E-17   0.00000000000000E+00   0.00000000000000E+00
      0.00000000000000E+00   0.00000000000000E+00  -5.86289763349799E-05  -4.91116112670723E-25  -5.86289763349799E-05
      1.91307544767510E-17   5.00000000000000E-02   5.00000000000000E-02   0.00000000000000E+00   0.00000000000000E+00
      5.86290045283066E-05  -2.46150562132281E-24   5.86290045283066E-05   3.79527215064595E-17
      2.33333333333333E-01
      1.82000000000000E-01   1.82000000000000E-01   0.00000000000000E+00   0.00000000000000E+00   0.00000000000000E+00
      0.00000000000000E+00   0.00000000000000E+00  -3.09012260475675E-17   0.00000000000000E+00   0.00000000000000E+00
      0.00000000000000E+00   0.00000000000000E+00  -7.68213771749955E-05  -6.28244013106513E-25  -7.68213771749955E-05
      1.43473683905102E-17   5.00000000000000E-02   5.00000000000000E-02   0.00000000000000E+00   0.00000000000000E+00
      7.68213741081382E-05  -2.77766506694580E-25   7.68213741081382E-05   3.29476607211718E-17
      2.50000000000000E-01
      1.95000000000000E-01   1.95000000000000E-01   0.00000000000000E+00   0.00000000000000E+00   0.00000000000000E+00
      0.00000000000000E+00   0.00000000000000E+00  -1.73075134937637E-17   0.00000000000000E+00   0.00000000000000E+00
      0.00000000000000E+00   0.00000000000000E+00  -9.82022527163708E-05  -9.53098911114309E-25  -9.82022527163708E-05
      9.61164677104907E-18   5.00000000000000E-02   5.00000000000000E-02   0.00000000000000E+00   0.00000000000000E+00
      9.82022619213236E-05  -4.62746417109057E-25   9.82022619213236E-05   2.79632876567430E-17
      2.66666666666667E-01
      2.08000000000000E-01   2.08000000000000E-01   0.00000000000000E+00   0.00000000000000E+00   0.00000000000000E+00
      0.00000000000000E+00   0.00000000000000E+00  -3.17736578318866E-18   0.00000000000000E+00   0.00000000000000E+00
      0.00000000000000E+00   0.00000000000000E+00  -1.22512679086503E-04  -1.80024827845782E-24  -1.22512679086503E-04
      4.92175385323308E-18   5.00000000000000E-02   5.00000000000000E-02   0.00000000000000E+00   0.00000000000000E+00
      1.22512652361087E-04  -9.46803426924087E-25   1.22512652361087E-04   2.30045570692317E-17
      2.83333333333333E-01
      2.21000000000000E-01   2.21000000000000E-01   0.00000000000000E+00   0.00000000000000E+00   0.00000000000000E+00
      0.00000000000000E+00   0.00000000000000E+00   1.15054357979791E-17   0.00000000000000E+00   0.00000000000000E+00
      0.00000000000000E+00   0.00000000000000E+00  -1.49290614124095E-04  -2.66304457421715E-24  -1.49290614124095E-04
      2.75275894904026E-19   5.00000000000000E-02   5.00000000000000E-02   0.00000000000000E+00   0.00000000000000E+00
      1.49290534137926E-04  -1.41264103781097E-24   1.49290534137926E-04   1.80844417335340E-17
      3.00000000000000E-01
      2.34000000000000E-01   2.34000000000000E-01   0.00000000000000E+00   0.00000000000000E+00   0.00000000000000E+00
      0.00000000000000E+00   0.00000000000000E+00   2.67040480694408E-17   0.00000000000000E+00   0.00000000000000E+00
      0.00000000000000E+00   0.00000000000000E+00  -1.78200644845999E-04   4.47113264845374E-26  -1.78200644845999E-04
     -4.33109495421255E-18   5.00000000000000E-02   5.00000000000000E-02   0.00000000000000E+00   0.00000000000000E+00
      1.78200632054914E-04  -1.26309452162052E-24   1.78200632054914E-04   1.31948658761537E-17
      3.16666666666667E-01
      2.47000000000000E-01   2.47000000000000E-01   0.00000000000000E+00   0.00000000000000E+00   0.00000000000000E+00
      0.00000000000000E+00   0.00000000000000E+00   4.23888060267022E-17   0.00000000000000E+00   0.00000000000000E+00
      0.00000000000000E+00   0.00000000000000E+00  -2.08840811926971E-04   9.25331101418467E-25  -2.08840811926971E-04
     -8.90074838195653E-18   5.00000000000000E-02   5.00000000000000E-02   0.00000000000000E+00   0.00000000000000E+00
      2.08840791030361E-04   4.41784079944508E-25   2.08840791030361E-04   8.33208595355331E-18
      3.33333333333333E-01
      2.60000000000000E-01   2.60000000000000E-01   0.00000000000000E+00   0.00000000000000E+00   0.00000000000000E+00
      0.00000000000000E+00   0.00000000000000E+00   5.85349092809788E-17   0.00000000000000E+00   0.00000000000000E+00
      0.00000000000000E+00   0.00000000000000E+00  -2.40788907208021E-04   6.56677781591380E-25  -2.40788907208021E-04
     -1.34370425170009E-17   5.00000000000000E-02   5.00000000000000E-02   0.00000000000000E+00   0.00000000000000E+00
      2.40788894486919E-04   3.08255114853630E-25   2.40788894486919E-04   3.49461927923822E-18
      3.50000000000000E-01
      2.73000000000000E-01   2.73000000000000E-01   0.00000000000000E+00   0.00000000000000E+00   0.00000000000000E+00
      0.00000000000000E+00   0.00000000000000E+00   7.51143243472500E-17   0.00000000000000E+00   0.00000000000000E+00
      0.00000000000000E+00   0.00000000000000E+00  -2.73666192925394E-04  -4.43138265346256E-25  -2.73666192925394E-04
     -1.79432465071560E-17   5.00000000000000E-02   5.00000000000000E-02   0.00000000000000E+00   0.00000000000000E+00
      2.73666184301064E-04  -2.40424379021502E-25   2.73666184301064E-04  -1.31986607539410E-18
      3.66666666666667E-01
      2.86000000000000E-01   2.86000000000000E-01   0.00000000000000E+00   0.00000000000000E+00   0.00000000000000E+00
      0.00000000000000E+00   0.00000000000000E+00   9.20984559823255E-17   0.00000000000000E+00   0.00000000000000E+00
      0.00000000000000E+00   0.00000000000000E+00  -3.07141779434783E-04   3.79108970021785E-26  -3.07141779434783E-04
     -2.24225041061988E-17   5.00000000000000E-02   5.00000000000000E-02   0.00000000000000E+00   0.00000000000000E+00
      3.07141773618820E-04  -7.72598549945311E-26   3.07141773618820E-04  -6.11409100331075E-18
      3.83333333333333E-01
      2.99000000000000E-01   2.99000000000000E-01   0.00000000000000E+00   0.00000000000000E+00   0.00000000000000E+00
      0.00000000000000E+00   0.00000000000000E+00   1.09459094603631E-16   0.00000000000000E+00   0.00000000000000E+00
      0.00000000000000E+00   0.00000000000000E+00  -3.40932669454230E-04  -1.78751403228397E-25  -3.40932669454230E-04
     -2.68777824130199E-17   5.00000000000000E-02   5.00000000000000E-02   0.00000000000000E+00   0.00000000000000E+00
      3.40932665558138E-04  -1.00143726839695E-25   3.40932665558138E-04  -1.08907158802147E-17
      4.00000000000000E-01
      3.12000000000000E-01   3.12000000000000E-01   0.00000000000000E+00   0.00000000000000E+00   0.00000000000000E+00
      0.00000000000000E+00   0.00000000000000E+00   1.27169431124469E-16   0.00000000000000E+00   0.00000000000000E+00
      0.00000000000000E+00   0.00000000000000E+00  -3.74798075979763E-04  -9.96991704914937E-26  -3.74798075979763E-04
     -3.13118514011824E-17   5.00000000000000E-02   5.00000000000000E-02   0.00000000000000E+00   0.00000000000000E+00
      3.74798073348154E-04  -5.47189147097037E-26   3.74798073348154E-04  -1.56523363062663E-17
      4.16666666666667E-01
      3.25000000000000E-01   3.25000000000000E-01   0.00000000000000E+00   0.00000000000000E+00   0.00000000000000E+00
      0.00000000000000E+00   0.00000000000000E+00   1.45204460884839E-16   0.00000000000000E+00   0.00000000000000E+00
      0.00000000000000E+00   0.00000000000000E+00  -4.08535118096786E-04  -1.85791895492756E-25  -4.08535118096786E-04
     -3.57273034875133E-17   5.00000000000000E-02   5.00000000000000E-02   0.00000000000000E+00   0.00000000000000E+00
      4.08535116281482E-04  -1.11152926012090E-25   4.08535116281482E-04  -2.04013651770740E-17
      4.33333333333333E-01
      3.38000000000000E-01   3.38000000000000E-01   0.00000000000000E+00   0.00000000000000E+00   0.00000000000000E+00
      0.00000000000000E+00   0.00000000000000E+00   1.63540963152843E-16   0.00000000000000E+00   0.00000000000000E+00
      0.00000000000000E+00   0.00000000000000E+00  -4.41973035131223E-04  -2.08516163951065E-25  -4.41973035131223E-04
     -4.01265217560691E-17   5.00000000000000E-02   5.00000000000000E-02   0.00000000000000E+00   0.00000000000000E+00
      4.41973033846918E-04  -1.30050162003960E-25   4.41973033846918E-04  -2.51399849536711E-17
      4.50000000000000E-01
      3.51000000000000E-01   3.51000000000000E-01   0.00000000000000E+00   0.00000000000000E+00   0.00000000000000E+00
      0.00000000000000E+00   0.00000000000000E+00   1.82157686815672E-16   0.00000000000000E+00   0.00000000000000E+00
      0.00000000000000E+00   0.00000000000000E+00  -4.74968901964962E-04  -1.53528218243632E-25  -4.74968901964962E-04
     -4.45117116078662E-17   5.00000000000000E-02   5.00000000000000E-02   0.00000000000000E+00   0.00000000000000E+00
      4.74968901009687E-04  -1.00849355902689E-25   4.74968901009687E-04  -2.98701863735325E-17
      4.66666666666667E-01
      3.64000000000000E-01   3.64000000000000E-01   0.00000000000000E+00   0.00000000000000E+00   0.00000000000000E+00
      0.00000000000000E+00   0.00000000000000E+00   2.01035069742287E-16   0.00000000000000E+00   0.00000000000000E+00
      0.00000000000000E+00   0.00000000000000E+00  -5.07404221637477E-04  -5.32560886799575E-26  -5.07404221637477E-04
     -4.88848869481190E-17   5.00000000000000E-02   5.00000000000000E-02   0.00000000000000E+00   0.00000000000000E+00
      5.07404240772904E-04  -3.47197799853036E-26   5.07404240772904E-04  -3.45937296906856E-17
      4.83333333333333E-01
      3.77000000000000E-01   3.77000000000000E-01   0.00000000000000E+00   0.00000000000000E+00   0.00000000000000E+00
      0.00000000000000E+00   0.00000000000000E+00   2.20155290498364E-16   0.00000000000000E+00   0.00000000000000E+00
      0.00000000000000E+00   0.00000000000000E+00  -5.39181874833037E-04  -2.78457440390574E-26  -5.39181874833037E-04
     -5.32478979150438E-17   5.00000000000000E-02   5.00000000000000E-02   0.00000000000000E+00   0.00000000000000E+00
      5.39181874186454E-04  -2.18164873223962E-26   5.39181874186454E-04  -3.93122055241982E-17
      5.00000000000000E-01
      3.90000000000000E-01   3.90000000000000E-01   0.00000000000000E+00   0.00000000000000E+00   0.00000000000000E+00
      0.00000000000000E+00   0.00000000000000E+00   2.39501951596245E-16   0.00000000000000E+00   0.00000000000000E+00
      0.00000000000000E+00   0.00000000000000E+00  -5.70223157710491E-04  -1.99877638487584E-26  -5.70223157710491E-04
     -5.76024129160792E-17   5.00000000000000E-02   5.00000000000000E-02   0.00000000000000E+00   0.00000000000000E+00
      5.70223157362328E-04  -1.09129831649322E-26   5.70223157362328E-04  -4.40270186063446E-17
      5.16666666666667E-01
      4.03000000000000E-01   4.03000000000000E-01   0.00000000000000E+00   0.00000000000000E+00   0.00000000000000E+00
      0.00000000000000E+00   0.00000000000000E+00   2.59060028607961E-16   0.00000000000000E+00   0.00000000000000E+00
      0.00000000000000E+00   0.00000000000000E+00  -6.00466191383915E-04  -5.98037544646164E-27  -6.00466191383915E-04
     -6.19499439179602E-17   5.00000000000000E-02   5.00000000000000E-02   0.00000000000000E+00   0.00000000000000E+00
      6.00466190985793E-04  -1.86466954116318E-27   6.00466190985793E-04  -4.87394178350527E-17
      5.33333333333333E-01
      4.16000000000000E-01   4.16000000000000E-01   0.00000000000000E+00   0.00000000000000E+00   0.00000000000000E+00
      0.00000000000000E+00   0.00000000000000E+00   2.78815739914566E-16   0.00000000000000E+00   0.00000000000000E+00
      0.00000000000000E+00   0.00000000000000E+00  -6.29864175782896E-04   2.16386802948173E-27  -6.29864175782896E-04
     -6.62918566069286E-17   5.00000000000000E-02   5.00000000000000E-02   0.00000000000000E+00   0.00000000000000E+00
      6.29864175462927E-04   4.28628811851609E-27   6.29864175462927E-04  -5.34505085290400E-17
      5.50000000000000E-01
      4.29000000000000E-01   4.29000000000000E-01   0.00000000000000E+00   0.00000000000000E+00   0.00000000000000E+00
      0.00000000000000E+00   0.00000000000000E+00   2.98756444440247E-16   0.00000000000000E+00   0.00000000000000E+00
      0.00000000000000E+00   0.00000000000000E+00  -6.58382923201273E-04   5.40088419126173E-27  -6.58382923201273E-04
     -7.06293741987230E-17   5.00000000000000E-02   5.00000000000000E-02   0.00000000000000E+00   0.00000000000000E+00
      6.58382922911501E-04   8.91471458115843E-27   6.58382922911501E-04  -5.81612793364834E-17
      5.66666666666667E-01
      4.42000000000000E-01   4.42000000000000E-01   0.00000000000000E+00   0.00000000000000E+00   0.00000000000000E+00
      0.00000000000000E+00   0.00000000000000E+00   3.18870482812506E-16   0.00000000000000E+00   0.00000000000000E+00
      0.00000000000000E+00   0.00000000000000E+00  -6.86000358114319E-04   7.29028892001749E-27  -6.86000358114319E-04
     -7.49635904649761E-17   5.00000000000000E-02   5.00000000000000E-02   0.00000000000000E+00   0.00000000000000E+00
      6.86000357861188E-04   1.10203883369640E-26   6.86000357861188E-04  -6.28725906843376E-17
      5.83333333333333E-01
      4.55000000000000E-01   4.55000000000000E-01   0.00000000000000E+00   0.00000000000000E+00   0.00000000000000E+00
      0.00000000000000E+00   0.00000000000000E+00   3.39147123981821E-16   0.00000000000000E+00   0.00000000000000E+00
      0.00000000000000E+00   0.00000000000000E+00  -7.12704081872827E-04   8.46209685790924E-27  -7.12704081872827E-04
     -7.92954753036327E-17   5.00000000000000E-02   5.00000000000000E-02   0.00000000000000E+00   0.00000000000000E+00
      7.12704081641432E-04   1.02274474253662E-26   7.12704081641432E-04  -6.75852054126432E-17
      6.00000000000000E-01
      4.68000000000000E-01   4.68000000000000E-01   0.00000000000000E+00   0.00000000000000E+00   0.00000000000000E+00
      0.00000000000000E+00   0.00000000000000E+00   3.59576470735753E-16   0.00000000000000E+00   0.00000000000000E+00
      0.00000000000000E+00   0.00000000000000E+00  -7.38490267274345E-04   8.46942932555687E-27  -7.38490267274345E-04
     -8.36258858230974E-17   5.00000000000000E-02   5.00000000000000E-02   0.00000000000000E+00   0.00000000000000E+00
      7.38490267066666E-04   9.95224444751776E-27   7.38490267066666E-04  -7.22997922996681E-17
      6.16666666666667E-01
      4.81000000000000E-01   4.81000000000000E-01   0.00000000000000E+00   0.00000000000000E+00   0.00000000000000E+00
      0.00000000000000E+00   0.00000000000000E+00   3.80149389325758E-16   0.00000000000000E+00   0.00000000000000E+00
      0.00000000000000E+00   0.00000000000000E+00  -7.63362396771877E-04   7.45834348612357E-27  -7.63362396771877E-04
     -8.79555763866234E-17   5.00000000000000E-02   5.00000000000000E-02   0.00000000000000E+00   0.00000000000000E+00
      7.63362396593155E-04   8.37922712150818E-27   7.63362396593155E-04  -7.70169353159242E-17
      6.33333333333334E-01
      4.94000000000000E-01   4.94000000000000E-01   0.00000000000000E+00   0.00000000000000E+00   0.00000000000000E+00
      0.00000000000000E+00   0.00000000000000E+00   4.00857409749863E-16   0.00000000000000E+00   0.00000000000000E+00
      0.00000000000000E+00   0.00000000000000E+00  -7.87329521765852E-04   7.16505525073825E-27  -7.87329521765852E-04
     -9.22851998482209E-17   5.00000000000000E-02   5.00000000000000E-02   0.00000000000000E+00   0.00000000000000E+00
      7.87329521613850E-04   8.28966620710632E-27   7.87329521613850E-04  -8.17371404181155E-17
      6.50000000000000E-01
      5.07000000000000E-01   5.07000000000000E-01   0.00000000000000E+00   0.00000000000000E+00   0.00000000000000E+00
      0.00000000000000E+00   0.00000000000000E+00   4.21692729211092E-16   0.00000000000000E+00   0.00000000000000E+00
      0.00000000000000E+00   0.00000000000000E+00  -8.10406709724533E-04   3.83377709079840E-27  -8.10406709724533E-04
     -9.66153346225445E-17   5.00000000000000E-02   5.00000000000000E-02   0.00000000000000E+00   0.00000000000000E+00
      8.10406709583538E-04   4.88031043495319E-27   8.10406709583538E-04  -8.64608408720215E-17
      6.66666666666667E-01
      5.20000000000000E-01   5.20000000000000E-01   0.00000000000000E+00   0.00000000000000E+00   0.00000000000000E+00
      0.00000000000000E+00   0.00000000000000E+00   4.42648109003327E-16   0.00000000000000E+00   0.00000000000000E+00
      0.00000000000000E+00   0.00000000000000E+00  -8.32612997075246E-04   3.24102819819659E-27  -8.32612997075246E-04
     -1.00946478799697E-16   5.00000000000000E-02   5.00000000000000E-02   0.00000000000000E+00   0.00000000000000E+00
      8.32612996943671E-04   4.04843797236972E-27   8.32612996943671E-04  -9.11884052422918E-17
      6.83333333333334E-01
      5.33000000000000E-01   5.33000000000000E-01   0.00000000000000E+00   0.00000000000000E+00   0.00000000000000E+00
      0.00000000000000E+00   0.00000000000000E+00   4.63716811221126E-16   0.00000000000000E+00   0.00000000000000E+00
      0.00000000000000E+00   0.00000000000000E+00  -8.53970431022227E-04   2.20238548366133E-27  -8.53970431022227E-04
     -1.05279055846294E-16   5.00000000000000E-02   5.00000000000000E-02   0.00000000000000E+00   0.00000000000000E+00
      8.53970430902892E-04   2.92158441295293E-27   8.53970430902892E-04  -9.59201415671351E-17
      7.00000000000001E-01
      5.46000000000000E-01   5.46000000000000E-01   0.00000000000000E+00   0.00000000000000E+00   0.00000000000000E+00
      0.00000000000000E+00   0.00000000000000E+00   4.84892612498003E-16   0.00000000000000E+00   0.00000000000000E+00
      0.00000000000000E+00   0.00000000000000E+00  -8.74503900730607E-04   1.19926742573380E-27  -8.74503900730607E-04
     -1.09613432527389E-16   5.00000000000000E-02   5.00000000000000E-02   0.00000000000000E+00   0.00000000000000E+00
      8.74503900621904E-04   1.76070541418080E-27   8.74503900621904E-04  -1.00656308413639E-16
      7.16666666666667E-01
      5.59000000000000E-01   5.59000000000000E-01   0.00000000000000E+00   0.00000000000000E+00   0.00000000000000E+00
      0.00000000000000E+00   0.00000000000000E+00   5.06169631207739E-16   0.00000000000000E+00   0.00000000000000E+00
      0.00000000000000E+00   0.00000000000000E+00  -8.94247700486569E-04   6.76041625748723E-26  -8.94247700486569E-04
     -1.13949920235988E-16   5.00000000000000E-02   5.00000000000000E-02   0.00000000000000E+00   0.00000000000000E+00
      8.94238115902633E-04   3.31967618672367E-26   8.94238115902633E-04  -1.05397117811978E-16
      7.33333333333334E-01
      5.72000000000001E-01   5.72000000000001E-01   0.00000000000000E+00   0.00000000000000E+00   0.00000000000000E+00
      0.00000000000000E+00   0.00000000000000E+00   5.27542665767573E-16   0.00000000000000E+00   0.00000000000000E+00
      0.00000000000000E+00   0.00000000000000E+00  -9.13213422640154E-04   5.73470473802458E-26  -9.13213422640154E-04
     -1.18288770424706E-16   5.00000000000000E-02   5.00000000000000E-02   0.00000000000000E+00   0.00000000000000E+00
      9.13205600684489E-04   3.13193447036572E-26   9.13205600684489E-04  -1.10142734844724E-16
      7.50000000000001E-01
      5.85000000000001E-01   5.85000000000001E-01   0.00000000000000E+00   0.00000000000000E+00   0.00000000000000E+00
      0.00000000000000E+00   0.00000000000000E+00   5.49006604024512E-16   0.00000000000000E+00   0.00000000000000E+00
      0.00000000000000E+00   0.00000000000000E+00  -9.31438266375273E-04   5.47031317190000E-26  -9.31438266375273E-04
     -1.22630201437885E-16   5.00000000000000E-02   5.00000000000000E-02   0.00000000000000E+00   0.00000000000000E+00
      9.31432095260515E-04   3.02118616771559E-26   9.31432095260515E-04  -1.14893292139519E-16
      7.66666666666667E-01
      5.98000000000001E-01   5.98000000000001E-01   0.00000000000000E+00   0.00000000000000E+00   0.00000000000000E+00
      0.00000000000000E+00   0.00000000000000E+00   5.70556774108963E-16   0.00000000000000E+00   0.00000000000000E+00
      0.00000000000000E+00   0.00000000000000E+00  -9.48951308295164E-04   4.99731742736817E-26  -9.48951308295164E-04
     -1.26974388675747E-16   5.00000000000000E-02   5.00000000000000E-02   0.00000000000000E+00   0.00000000000000E+00
      9.48946590595609E-04   2.85584338659772E-26   9.48946590595609E-04  -1.19648886696587E-16
      7.83333333333334E-01
      6.11000000000001E-01   6.11000000000001E-01   0.00000000000000E+00   0.00000000000000E+00   0.00000000000000E+00
      0.00000000000000E+00   0.00000000000000E+00   5.92188818279714E-16   0.00000000000000E+00   0.00000000000000E+00
      0.00000000000000E+00   0.00000000000000E+00  -9.65781622358638E-04   4.57525172630640E-26  -9.65781622358638E-04
     -1.31321472895264E-16   5.00000000000000E-02   5.00000000000000E-02   0.00000000000000E+00   0.00000000000000E+00
      9.65778187960544E-04   2.70973141325550E-26   9.65778187960544E-04  -1.24409585593192E-16
      8.00000000000001E-01
      6.24000000000001E-01   6.24000000000001E-01   0.00000000000000E+00   0.00000000000000E+00   0.00000000000000E+00
      0.00000000000000E+00   0.00000000000000E+00   6.13898669996498E-16   0.00000000000000E+00   0.00000000000000E+00