DF-ISE text

Info {
  version   = 1.0
  type      = xyplot
  datasets  = [
    "time"
    "gate OuterVoltage" "gate InnerVoltage" "gate QuasiFermiPotential" "gate DisplacementCurrent" "gate eCurrent"
    "gate hCurrent" "gate TotalCurrent" "gate Charge" "source OuterVoltage" "source InnerVoltage"
    "source QuasiFermiPotential" "source DisplacementCurrent" "source eCurrent" "source hCurrent" "source TotalCurrent"
    "source Charge" "drain OuterVoltage" "drain InnerVoltage" "drain QuasiFermiPotential" "drain DisplacementCurrent"
    "drain eCurrent" "drain hCurrent" "drain TotalCurrent" "drain Charge" ]
  functions = [
    Time
    OuterVoltage InnerVoltage QuasiFermiPotential DisplacementCurrent eCurrent
    hCurrent TotalCurrent Charge OuterVoltage InnerVoltage
    QuasiFermiPotential DisplacementCurrent eCurrent hCurrent TotalCurrent
    Charge OuterVoltage InnerVoltage QuasiFermiPotential DisplacementCurrent
    eCurrent hCurrent TotalCurrent Charge ]
}

Data {
      0.00000000000000E+00
      0.00000000000000E+00   0.00000000000000E+00   0.00000000000000E+00   0.00000000000000E+00   0.00000000000000E+00
      0.00000000000000E+00   0.00000000000000E+00  -5.06171358586600E-16   0.00000000000000E+00   0.00000000000000E+00
      0.00000000000000E+00   0.00000000000000E+00  -2.17122918235215E-08  -3.18712548153196E-22  -2.17122918235218E-08
      1.20914268569348E-16   7.50000000000000E-01   7.50000000000000E-01   0.00000000000000E+00   0.00000000000000E+00
      2.17091186023563E-08   9.89356848225611E-23   2.17091186023564E-08   3.86646753454301E-16
      1.66666666666667E-02
      1.66666666666667E-03   1.66666666666667E-03   0.00000000000000E+00   0.00000000000000E+00   0.00000000000000E+00
      0.00000000000000E+00   0.00000000000000E+00  -5.04980402032057E-16   0.00000000000000E+00   0.00000000000000E+00
      0.00000000000000E+00   0.00000000000000E+00  -2.30202419746317E-08  -4.30631889246751E-22  -2.30202419746321E-08
      1.20293444947596E-16   7.50000000000000E-01   7.50000000000000E-01   0.00000000000000E+00   0.00000000000000E+00
      2.30222278190500E-08  -3.03125292540671E-20   2.30222278190197E-08   3.86081024281181E-16
      3.33333333333333E-02
      3.33333333333333E-03   3.33333333333333E-03   0.00000000000000E+00   0.00000000000000E+00   0.00000000000000E+00
      0.00000000000000E+00   0.00000000000000E+00  -5.03789081591158E-16   0.00000000000000E+00   0.00000000000000E+00
      0.00000000000000E+00   0.00000000000000E+00  -2.44066722667135E-08   1.73965848632063E-22  -2.44066722667134E-08
      1.19672430951768E-16   7.50000000000000E-01   7.50000000000000E-01   0.00000000000000E+00   0.00000000000000E+00
      2.44034048868187E-08  -2.92774371868065E-20   2.44034048867895E-08   3.85515213033902E-16
      5.00000000000000E-02
      5.00000000000000E-03   5.00000000000000E-03   0.00000000000000E+00   0.00000000000000E+00   0.00000000000000E+00
      0.00000000000000E+00   0.00000000000000E+00  -5.02597395484285E-16   0.00000000000000E+00   0.00000000000000E+00
      0.00000000000000E+00   0.00000000000000E+00  -2.58760127445714E-08   7.19346984168888E-19  -2.58760127438520E-08
      1.19051226541740E-16   7.50000000000000E-01   7.50000000000000E-01   0.00000000000000E+00   0.00000000000000E+00
      2.58452542804612E-08  -6.99129392201395E-19   2.58452542797620E-08   3.84949320560167E-16
      6.66666666666667E-02
      6.66666666666667E-03   6.66666666666667E-03   0.00000000000000E+00   0.00000000000000E+00   0.00000000000000E+00
      0.00000000000000E+00   0.00000000000000E+00  -5.01405339554493E-16   0.00000000000000E+00   0.00000000000000E+00
      0.00000000000000E+00   0.00000000000000E+00  -2.74337872134090E-08   9.63379350047760E-19  -2.74337872124457E-08
      1.18429831702027E-16   7.50000000000000E-01   7.50000000000000E-01   0.00000000000000E+00   0.00000000000000E+00
      2.73912628371254E-08  -5.75664902436415E-19   2.73912628365498E-08   3.84383345359819E-16
      8.33333333333333E-02
      8.33333333333333E-03   8.33333333333333E-03   0.00000000000000E+00   0.00000000000000E+00   0.00000000000000E+00
      0.00000000000000E+00   0.00000000000000E+00  -5.00212911811865E-16   0.00000000000000E+00   0.00000000000000E+00
      0.00000000000000E+00   0.00000000000000E+00  -2.90849098949749E-08   6.75528871521914E-19  -2.90849098942994E-08
      1.17808246423326E-16   7.50000000000000E-01   7.50000000000000E-01   0.00000000000000E+00   0.00000000000000E+00
      2.90304897665337E-08  -5.16263181370264E-19   2.90304897660175E-08   3.83817288168280E-16
      1.00000000000000E-01
      1.00000000000000E-02   1.00000000000000E-02   0.00000000000000E+00   0.00000000000000E+00   0.00000000000000E+00
      0.00000000000000E+00   0.00000000000000E+00  -4.99020109326586E-16   0.00000000000000E+00   0.00000000000000E+00
      0.00000000000000E+00   0.00000000000000E+00  -3.08349644722107E-08   5.19422865598358E-19  -3.08349644716913E-08
      1.17186470715178E-16   7.50000000000000E-01   7.50000000000000E-01   0.00000000000000E+00   0.00000000000000E+00
      3.07600373531180E-08  -4.82213593925019E-19   3.07600373526358E-08   3.83251148830441E-16
      1.16666666666667E-01
      1.16666666666667E-02   1.16666666666667E-02   0.00000000000000E+00   0.00000000000000E+00   0.00000000000000E+00
      0.00000000000000E+00   0.00000000000000E+00  -4.97826929068939E-16   0.00000000000000E+00   0.00000000000000E+00
      0.00000000000000E+00   0.00000000000000E+00  -3.26898675741350E-08   5.42702487911622E-19  -3.26898675735923E-08
      1.16564504607061E-16   7.50000000000000E-01   7.50000000000000E-01   0.00000000000000E+00   0.00000000000000E+00
      3.25790833478791E-08  -4.50689196597688E-19   3.25790833474285E-08   3.82684927184186E-16
      1.33333333333333E-01
      1.33333333333333E-02   1.33333333333333E-02   0.00000000000000E+00   0.00000000000000E+00   0.00000000000000E+00
      0.00000000000000E+00   0.00000000000000E+00  -4.96633367991308E-16   0.00000000000000E+00   0.00000000000000E+00
      0.00000000000000E+00   0.00000000000000E+00  -3.46558664249418E-08   5.06670321487871E-19  -3.46558664244351E-08
      1.15942348145177E-16   7.50000000000000E-01   7.50000000000000E-01   0.00000000000000E+00   0.00000000000000E+00
      3.44858419692928E-08  -4.21624021316085E-19   3.44858419688712E-08   3.82118623110534E-16
      1.50000000000000E-01
      1.50000000000000E-02   1.50000000000000E-02   0.00000000000000E+00   0.00000000000000E+00   0.00000000000000E+00
      0.00000000000000E+00   0.00000000000000E+00  -4.95439422099562E-16   0.00000000000000E+00   0.00000000000000E+00
      0.00000000000000E+00   0.00000000000000E+00  -3.67397773698908E-08   1.15670135950016E-21  -3.67397773698896E-08
      1.15320001396505E-16   7.50000000000000E-01   7.50000000000000E-01   0.00000000000000E+00   0.00000000000000E+00
      3.66152757035477E-08   4.34462097686272E-21   3.66152757035521E-08   3.81552235495212E-16
      1.66666666666667E-01
      1.66666666666667E-02   1.66666666666667E-02   0.00000000000000E+00   0.00000000000000E+00   0.00000000000000E+00
      0.00000000000000E+00   0.00000000000000E+00  -4.94245089323772E-16   0.00000000000000E+00   0.00000000000000E+00
      0.00000000000000E+00   0.00000000000000E+00  -3.89482129252713E-08   1.06323640369958E-21  -3.89482129252703E-08
      1.14697464444937E-16   7.50000000000000E-01   7.50000000000000E-01   0.00000000000000E+00   0.00000000000000E+00
      3.87984309567824E-08   3.74283214766189E-21   3.87984309567862E-08   3.80985765587022E-16
      1.83333333333333E-01
      1.83333333333333E-02   1.83333333333333E-02   0.00000000000000E+00   0.00000000000000E+00   0.00000000000000E+00
      0.00000000000000E+00   0.00000000000000E+00  -4.93050365718305E-16   0.00000000000000E+00   0.00000000000000E+00
      0.00000000000000E+00   0.00000000000000E+00  -4.12887867078505E-08   1.44896037546823E-21  -4.12887867078490E-08
      1.14074737396742E-16   7.50000000000000E-01   7.50000000000000E-01   0.00000000000000E+00   0.00000000000000E+00
      4.10549842566068E-08   2.86565650790121E-21   4.10549842566096E-08   3.80419212605648E-16
      2.00000000000000E-01
      2.00000000000000E-02   2.00000000000000E-02   0.00000000000000E+00   0.00000000000000E+00   0.00000000000000E+00
      0.00000000000000E+00   0.00000000000000E+00  -4.91855247817811E-16   0.00000000000000E+00   0.00000000000000E+00
      0.00000000000000E+00   0.00000000000000E+00  -4.37693610520104E-08   1.10248510934974E-21  -4.37693610520093E-08
      1.13451820378063E-16   7.50000000000000E-01   7.50000000000000E-01   0.00000000000000E+00   0.00000000000000E+00
      4.34590138440850E-08   2.22002036720465E-21   4.34590138440872E-08   3.79852576265493E-16
      2.16666666666667E-01
      2.16666666666667E-02   2.16666666666667E-02   0.00000000000000E+00   0.00000000000000E+00   0.00000000000000E+00
      0.00000000000000E+00   0.00000000000000E+00  -4.90659732098740E-16   0.00000000000000E+00   0.00000000000000E+00
      0.00000000000000E+00   0.00000000000000E+00  -4.63982604019617E-08   9.41262610043838E-22  -4.63982604019608E-08
      1.12828713536745E-16   7.50000000000000E-01   7.50000000000000E-01   0.00000000000000E+00   0.00000000000000E+00
      4.61024497885225E-08   1.93588545020814E-21   4.61024497885245E-08   3.79285856211641E-16
      2.33333333333333E-01
      2.33333333333333E-02   2.33333333333333E-02   0.00000000000000E+00   0.00000000000000E+00   0.00000000000000E+00
      0.00000000000000E+00   0.00000000000000E+00  -4.89463816518837E-16   0.00000000000000E+00   0.00000000000000E+00
      0.00000000000000E+00   0.00000000000000E+00  -4.91840802217740E-08   3.73061739186598E-19  -4.91840802214010E-08
      1.12205417040453E-16   7.50000000000000E-01   7.50000000000000E-01   0.00000000000000E+00   0.00000000000000E+00
      4.89555872604919E-08  -2.84361626923673E-19   4.89555872602075E-08   3.78719053596700E-16
      2.50000000000000E-01
      2.50000000000000E-02   2.50000000000000E-02   0.00000000000000E+00   0.00000000000000E+00   0.00000000000000E+00
      0.00000000000000E+00   0.00000000000000E+00  -4.88267496332546E-16   0.00000000000000E+00   0.00000000000000E+00
      0.00000000000000E+00   0.00000000000000E+00  -5.21365799966128E-08   2.93370405011024E-19  -5.21365799963195E-08
      1.11581931084325E-16   7.50000000000000E-01   7.50000000000000E-01   0.00000000000000E+00   0.00000000000000E+00
      5.20835695835986E-08  -2.60631780429424E-19   5.20835695833379E-08   3.78152166910939E-16
      2.66666666666667E-01
      2.66666666666667E-02   2.66666666666667E-02   0.00000000000000E+00   0.00000000000000E+00   0.00000000000000E+00
      0.00000000000000E+00   0.00000000000000E+00  -4.87070769125796E-16   0.00000000000000E+00   0.00000000000000E+00
      0.00000000000000E+00   0.00000000000000E+00  -5.52654191303679E-08   2.89078502889845E-19  -5.52654191300788E-08
      1.10958255884421E-16   7.50000000000000E-01   7.50000000000000E-01   0.00000000000000E+00   0.00000000000000E+00
      5.54674449837919E-08  -2.45891078832146E-19   5.54674449835460E-08   3.77585197179681E-16
      2.83333333333333E-01
      2.83333333333333E-02   2.83333333333333E-02   0.00000000000000E+00   0.00000000000000E+00   0.00000000000000E+00
      0.00000000000000E+00   0.00000000000000E+00  -4.85873632037467E-16   0.00000000000000E+00   0.00000000000000E+00
      0.00000000000000E+00   0.00000000000000E+00  -5.85812751161108E-08  -8.04140396043053E-22  -5.85812751161116E-08
      1.10334391682132E-16   7.50000000000000E-01   7.50000000000000E-01   0.00000000000000E+00   0.00000000000000E+00
      5.87001626128660E-08   2.03070635624664E-22   5.87001626128662E-08   3.77018145148787E-16
      3.00000000000000E-01
      3.00000000000000E-02   3.00000000000000E-02   0.00000000000000E+00   0.00000000000000E+00   0.00000000000000E+00
      0.00000000000000E+00   0.00000000000000E+00  -4.84676082150418E-16   0.00000000000000E+00   0.00000000000000E+00
      0.00000000000000E+00   0.00000000000000E+00  -6.20947757241981E-08   2.28841169734682E-22  -6.20947757241979E-08
      1.09710338744103E-16   7.50000000000000E-01   7.50000000000000E-01   0.00000000000000E+00   0.00000000000000E+00
      6.21226867601076E-08   1.99374582816105E-21   6.21226867601096E-08   3.76451011561857E-16
      3.16666666666667E-01
      3.16666666666667E-02   3.16666666666667E-02   0.00000000000000E+00   0.00000000000000E+00   0.00000000000000E+00
      0.00000000000000E+00   0.00000000000000E+00  -4.83478114959946E-16   0.00000000000000E+00   0.00000000000000E+00
      0.00000000000000E+00   0.00000000000000E+00  -6.58176472228976E-08   2.45087973305186E-19  -6.58176472226525E-08
      1.09086097372073E-16   7.50000000000000E-01   7.50000000000000E-01   0.00000000000000E+00   0.00000000000000E+00
      6.58422512108994E-08  -2.01927176436644E-19   6.58422512106974E-08   3.75883795683596E-16
      3.33333333333333E-01
      3.33333333333333E-02   3.33333333333333E-02   0.00000000000000E+00   0.00000000000000E+00   0.00000000000000E+00
      0.00000000000000E+00   0.00000000000000E+00  -4.82279724962052E-16   0.00000000000000E+00   0.00000000000000E+00
      0.00000000000000E+00   0.00000000000000E+00  -6.97627620411362E-08   2.17358472080627E-19  -6.97627620409189E-08
      1.08461667893108E-16   7.50000000000000E-01   7.50000000000000E-01   0.00000000000000E+00   0.00000000000000E+00
      6.98764451844594E-08  -1.86121408752572E-19   6.98764451842733E-08   3.75316495861877E-16
      3.50000000000000E-01
      3.50000000000000E-02   3.50000000000000E-02   0.00000000000000E+00   0.00000000000000E+00   0.00000000000000E+00
      0.00000000000000E+00   0.00000000000000E+00  -4.81080908769921E-16   0.00000000000000E+00   0.00000000000000E+00
      0.00000000000000E+00   0.00000000000000E+00  -7.39430453495839E-08   1.87954760491721E-19  -7.39430453493959E-08
      1.07837050661430E-16   7.50000000000000E-01   7.50000000000000E-01   0.00000000000000E+00   0.00000000000000E+00
      7.41947344513728E-08  -1.75524531649815E-19   7.41947344511972E-08   3.74749112705860E-16
      3.66666666666667E-01
      3.66666666666667E-02   3.66666666666667E-02   0.00000000000000E+00   0.00000000000000E+00   0.00000000000000E+00
      0.00000000000000E+00   0.00000000000000E+00  -4.79881662496015E-16   0.00000000000000E+00   0.00000000000000E+00
      0.00000000000000E+00   0.00000000000000E+00  -7.83724042509549E-08   1.59492007759561E-19  -7.83724042507955E-08
      1.07212246060715E-16   7.50000000000000E-01   7.50000000000000E-01   0.00000000000000E+00   0.00000000000000E+00
      7.87170059735132E-08  -1.64094222953381E-19   7.87170059733491E-08   3.74181646450543E-16
      3.83333333333333E-01
      3.83333333333333E-02   3.83333333333333E-02   0.00000000000000E+00   0.00000000000000E+00   0.00000000000000E+00
      0.00000000000000E+00   0.00000000000000E+00  -4.78681981994677E-16   0.00000000000000E+00   0.00000000000000E+00
      0.00000000000000E+00   0.00000000000000E+00  -8.30657876619992E-08   9.23653796473466E-22  -8.30657876619983E-08
      1.06587254506525E-16   7.50000000000000E-01   7.50000000000000E-01   0.00000000000000E+00   0.00000000000000E+00
      8.32599943775818E-08   1.09464501101013E-21   8.32599943775829E-08   3.73614097236411E-16
      4.00000000000000E-01
      4.00000000000000E-02   4.00000000000000E-02   0.00000000000000E+00   0.00000000000000E+00   0.00000000000000E+00
      0.00000000000000E+00   0.00000000000000E+00  -4.77481864362680E-16   0.00000000000000E+00   0.00000000000000E+00
      0.00000000000000E+00   0.00000000000000E+00  -8.80380759140748E-08   1.53950236791600E-19  -8.80380759139209E-08
      1.05962076446176E-16   7.50000000000000E-01   7.50000000000000E-01   0.00000000000000E+00   0.00000000000000E+00
      8.81076629332461E-08  -1.45209368656841E-19   8.81076629331009E-08   3.73046466495953E-16
      4.16666666666667E-01
      4.16666666666667E-02   4.16666666666667E-02   0.00000000000000E+00   0.00000000000000E+00   0.00000000000000E+00
      0.00000000000000E+00   0.00000000000000E+00  -4.76281302586332E-16   0.00000000000000E+00   0.00000000000000E+00
      0.00000000000000E+00   0.00000000000000E+00  -9.33064905122919E-08   1.43869560945885E-19  -9.33064905121480E-08
      1.05336712367590E-16   7.50000000000000E-01   7.50000000000000E-01   0.00000000000000E+00   0.00000000000000E+00
      9.33323323871204E-08  -1.33809565905537E-19   9.33323323869866E-08   3.72478751657445E-16
      4.33333333333333E-01
      4.33333333333333E-02   4.33333333333333E-02   0.00000000000000E+00   0.00000000000000E+00   0.00000000000000E+00
      0.00000000000000E+00   0.00000000000000E+00  -4.75080292577311E-16   0.00000000000000E+00   0.00000000000000E+00
      0.00000000000000E+00   0.00000000000000E+00  -9.88882537269478E-08   1.30563142794706E-19  -9.88882537268173E-08
      1.04711162788143E-16   7.50000000000000E-01   7.50000000000000E-01   0.00000000000000E+00   0.00000000000000E+00
      9.89525947294501E-08  -1.26045284483154E-19   9.89525947293240E-08   3.71910953262914E-16
      4.50000000000000E-01
      4.50000000000000E-02   4.50000000000000E-02   0.00000000000000E+00   0.00000000000000E+00   0.00000000000000E+00
      0.00000000000000E+00   0.00000000000000E+00  -4.73878829671683E-16   0.00000000000000E+00   0.00000000000000E+00
      0.00000000000000E+00   0.00000000000000E+00  -1.04801852338077E-07   1.11250960288012E-19  -1.04801852337966E-07
      1.04085428262320E-16   7.50000000000000E-01   7.50000000000000E-01   0.00000000000000E+00   0.00000000000000E+00
      1.04938869496934E-07  -1.17604703150177E-19   1.04938869496816E-07   3.71343071432672E-16
      4.66666666666667E-01
      4.66666666666667E-02   4.66666666666667E-02   0.00000000000000E+00   0.00000000000000E+00   0.00000000000000E+00
      0.00000000000000E+00   0.00000000000000E+00  -4.72676909107479E-16   0.00000000000000E+00   0.00000000000000E+00
      0.00000000000000E+00   0.00000000000000E+00  -1.11066850133155E-07   1.01656823922602E-19  -1.11066850133054E-07
      1.03459509381815E-16   7.50000000000000E-01   7.50000000000000E-01   0.00000000000000E+00   0.00000000000000E+00
      1.11253648314997E-07  -1.09972403284478E-19   1.11253648314887E-07   3.70775106344792E-16
      4.83333333333333E-01
      4.83333333333333E-02   4.83333333333333E-02   0.00000000000000E+00   0.00000000000000E+00   0.00000000000000E+00
      0.00000000000000E+00   0.00000000000000E+00  -4.71474525883967E-16   0.00000000000000E+00   0.00000000000000E+00
      0.00000000000000E+00   0.00000000000000E+00  -1.17703919933928E-07   1.03845798862488E-19  -1.17703919933824E-07
      1.02833406778230E-16   7.50000000000000E-01   7.50000000000000E-01   0.00000000000000E+00   0.00000000000000E+00
      1.17892832360717E-07  -1.03586422925356E-19   1.17892832360614E-07   3.70207058095940E-16
      5.00000000000000E-01
      5.00000000000000E-02   5.00000000000000E-02   0.00000000000000E+00   0.00000000000000E+00   0.00000000000000E+00
      0.00000000000000E+00   0.00000000000000E+00  -4.70271674678473E-16   0.00000000000000E+00   0.00000000000000E+00
      0.00000000000000E+00   0.00000000000000E+00  -1.24734989352123E-07   8.53278725189924E-20  -1.24734989352038E-07
      1.02207121123510E-16   7.50000000000000E-01   7.50000000000000E-01   0.00000000000000E+00   0.00000000000000E+00
      1.24888863305308E-07  -9.68934517736771E-20   1.24888863305211E-07   3.69638926613591E-16
      5.16666666666667E-01
      5.16666666666667E-02   5.16666666666667E-02   0.00000000000000E+00   0.00000000000000E+00   0.00000000000000E+00
      0.00000000000000E+00   0.00000000000000E+00  -4.69068349934266E-16   0.00000000000000E+00   0.00000000000000E+00
      0.00000000000000E+00   0.00000000000000E+00  -1.32183221048566E-07   8.30393752792667E-20  -1.32183221048483E-07
      1.01580653131964E-16   7.50000000000000E-01   7.50000000000000E-01   0.00000000000000E+00   0.00000000000000E+00
      1.32286734611053E-07  -9.08243854030324E-20   1.32286734610962E-07   3.69070711762911E-16
      5.33333333333333E-01
      5.33333333333333E-02   5.33333333333333E-02   0.00000000000000E+00   0.00000000000000E+00   0.00000000000000E+00
      0.00000000000000E+00   0.00000000000000E+00  -4.67864545964262E-16   0.00000000000000E+00   0.00000000000000E+00
      0.00000000000000E+00   0.00000000000000E+00  -1.40073132443036E-07   8.00776176405893E-20  -1.40073132442956E-07
      1.00954003564102E-16   7.50000000000000E-01   7.50000000000000E-01   0.00000000000000E+00   0.00000000000000E+00
      1.40129741934097E-07  -8.52521556160772E-20   1.40129741934012E-07   3.68502413458421E-16
      5.50000000000000E-01
      5.50000000000000E-02   5.50000000000000E-02   0.00000000000000E+00   0.00000000000000E+00   0.00000000000000E+00
      0.00000000000000E+00   0.00000000000000E+00  -4.66660256909260E-16   0.00000000000000E+00   0.00000000000000E+00
      0.00000000000000E+00   0.00000000000000E+00  -1.48430668727123E-07   7.28100095412763E-20  -1.48430668727051E-07
      1.00327173220663E-16   7.50000000000000E-01   7.50000000000000E-01   0.00000000000000E+00   0.00000000000000E+00
      1.48450054090313E-07  -8.00809554879721E-20   1.48450054090233E-07   3.67934031646894E-16
      5.66666666666667E-01
      5.66666666666667E-02   5.66666666666667E-02   0.00000000000000E+00   0.00000000000000E+00   0.00000000000000E+00
      0.00000000000000E+00   0.00000000000000E+00  -4.65455476735816E-16   0.00000000000000E+00   0.00000000000000E+00
      0.00000000000000E+00   0.00000000000000E+00  -1.57283273969386E-07   6.64855396991517E-20  -1.57283273969320E-07
      9.97001629510337E-17   7.50000000000000E-01   7.50000000000000E-01   0.00000000000000E+00   0.00000000000000E+00
      1.57268301786646E-07  -7.52994541737658E-20   1.57268301786570E-07   3.67365566302661E-16
      5.83333333333333E-01
      5.83333333333333E-02   5.83333333333333E-02   0.00000000000000E+00   0.00000000000000E+00   0.00000000000000E+00
      0.00000000000000E+00   0.00000000000000E+00  -4.64250199206179E-16   0.00000000000000E+00   0.00000000000000E+00
      0.00000000000000E+00   0.00000000000000E+00  -1.66659976197553E-07   6.22853881178788E-20  -1.66659976197491E-07
      9.90729736566293E-17   7.50000000000000E-01   7.50000000000000E-01   0.00000000000000E+00   0.00000000000000E+00
      1.66599110604337E-07  -7.09516155181220E-20   1.66599110604266E-07   3.66797017404152E-16
      6.00000000000000E-01
      6.00000000000000E-02   6.00000000000000E-02   0.00000000000000E+00   0.00000000000000E+00   0.00000000000000E+00
      0.00000000000000E+00   0.00000000000000E+00  -4.63044417826178E-16   0.00000000000000E+00   0.00000000000000E+00
      0.00000000000000E+00   0.00000000000000E+00  -1.76591485188730E-07   5.79659974155746E-20  -1.76591485188672E-07
      9.84456062828156E-17   7.50000000000000E-01   7.50000000000000E-01   0.00000000000000E+00   0.00000000000000E+00
      1.76457117252560E-07  -6.71409462945713E-20   1.76457117252492E-07   3.66228384909022E-16
      6.16666666666667E-01
      6.16666666666667E-02   6.16666666666667E-02   0.00000000000000E+00   0.00000000000000E+00   0.00000000000000E+00
      0.00000000000000E+00   0.00000000000000E+00  -4.61838125832051E-16   0.00000000000000E+00   0.00000000000000E+00
      0.00000000000000E+00   0.00000000000000E+00  -1.87110280773211E-07   5.50963480901100E-20  -1.87110280773156E-07
      9.78180618302337E-17   7.50000000000000E-01   7.50000000000000E-01   0.00000000000000E+00   0.00000000000000E+00
      1.86859316304011E-07  -6.40465351633228E-20   1.86859316303947E-07   3.65659668736487E-16
      6.33333333333334E-01
      6.33333333333334E-02   6.33333333333334E-02   0.00000000000000E+00   0.00000000000000E+00   0.00000000000000E+00
      0.00000000000000E+00   0.00000000000000E+00  -4.60631316159100E-16   0.00000000000000E+00   0.00000000000000E+00
      0.00000000000000E+00   0.00000000000000E+00  -1.98250714883333E-07   5.20533024776379E-20  -1.98250714883281E-07
      9.71903413544426E-17   7.50000000000000E-01   7.50000000000000E-01   0.00000000000000E+00   0.00000000000000E+00
      1.97822548788609E-07  -6.20271756172152E-20   1.97822548788547E-07   3.65090868754991E-16
      6.50000000000000E-01
      6.50000000000000E-02   6.50000000000000E-02   0.00000000000000E+00   0.00000000000000E+00   0.00000000000000E+00
      0.00000000000000E+00   0.00000000000000E+00  -4.59423981405305E-16   0.00000000000000E+00   0.00000000000000E+00
      0.00000000000000E+00   0.00000000000000E+00  -2.10049112628986E-07   5.06787361278644E-20  -2.10049112628935E-07
      9.65624459672176E-17   7.50000000000000E-01   7.50000000000000E-01   0.00000000000000E+00   0.00000000000000E+00
      2.09357420627300E-07  -6.18310912285169E-20   2.09357420627238E-07   3.64521984766215E-16
      6.66666666666667E-01
      6.66666666666667E-02   6.66666666666667E-02   0.00000000000000E+00   0.00000000000000E+00   0.00000000000000E+00
      0.00000000000000E+00   0.00000000000000E+00  -4.58216113782221E-16   0.00000000000000E+00   0.00000000000000E+00
      0.00000000000000E+00   0.00000000000000E+00  -2.22543893736282E-07   4.98949539220032E-20  -2.22543893736232E-07
      9.59343768357361E-17   7.50000000000000E-01   7.50000000000000E-01   0.00000000000000E+00   0.00000000000000E+00
      2.21461283625451E-07  -6.49239397681592E-20   2.21461283625386E-07   3.63953016483749E-16
      6.83333333333334E-01
      6.83333333333334E-02   6.83333333333334E-02   0.00000000000000E+00   0.00000000000000E+00   0.00000000000000E+00
      0.00000000000000E+00   0.00000000000000E+00  -4.57007705055921E-16   0.00000000000000E+00   0.00000000000000E+00
      0.00000000000000E+00   0.00000000000000E+00  -2.35775678198709E-07   5.01188344666135E-20  -2.35775678198659E-07
      9.53061351897254E-17   7.50000000000000E-01   7.50000000000000E-01   0.00000000000000E+00   0.00000000000000E+00
      2.34114289977397E-07  -7.39689341917257E-20   2.34114289977323E-07   3.63383963495606E-16
      7.00000000000001E-01
      7.00000000000000E-02   7.00000000000000E-02   0.00000000000000E+00   0.00000000000000E+00   0.00000000000000E+00
      0.00000000000000E+00   0.00000000000000E+00  -4.55798746479285E-16   0.00000000000000E+00   0.00000000000000E+00
      0.00000000000000E+00   0.00000000000000E+00  -2.49787411932054E-07   5.03114906180542E-20  -2.49787411932004E-07
      9.46777223229014E-17   7.50000000000000E-01   7.50000000000000E-01   0.00000000000000E+00   0.00000000000000E+00
      2.47286712307195E-07  -9.29377821797648E-20   2.47286712307102E-07   3.62814825234668E-16
      7.16666666666667E-01
      7.16666666666667E-02   7.16666666666667E-02   0.00000000000000E+00   0.00000000000000E+00   0.00000000000000E+00
      0.00000000000000E+00   0.00000000000000E+00  -4.54589226122557E-16   0.00000000000000E+00   0.00000000000000E+00
      0.00000000000000E+00   0.00000000000000E+00  -2.64624771634609E-07  -1.17221168666110E-22  -2.64624771634609E-07
      9.40491395952057E-17   7.50000000000000E-01   7.50000000000000E-01   0.00000000000000E+00   0.00000000000000E+00
      2.61488378569087E-07  -2.87166440132356E-20   2.61488378569058E-07   3.62245599591626E-16
      7.33333333333334E-01
      7.33333333333334E-02   7.33333333333334E-02   0.00000000000000E+00   0.00000000000000E+00   0.00000000000000E+00
      0.00000000000000E+00   0.00000000000000E+00  -4.53379135726330E-16   0.00000000000000E+00   0.00000000000000E+00
      0.00000000000000E+00   0.00000000000000E+00  -2.80335278348345E-07  -1.10633908541571E-22  -2.80335278348345E-07
      9.34203884279077E-17   7.50000000000000E-01   7.50000000000000E-01   0.00000000000000E+00   0.00000000000000E+00
      2.77493285000629E-07  -1.92247938887306E-20   2.77493285000610E-07   3.61676286057709E-16
      7.50000000000001E-01
      7.50000000000001E-02   7.50000000000001E-02   0.00000000000000E+00   0.00000000000000E+00   0.00000000000000E+00
      0.00000000000000E+00   0.00000000000000E+00  -4.52168469131786E-16   0.00000000000000E+00   0.00000000000000E+00
      0.00000000000000E+00   0.00000000000000E+00  -2.96969655832202E-07   3.88961319341061E-20  -2.96969655832163E-07
      9.27914703061117E-17   7.50000000000000E-01   7.50000000000000E-01   0.00000000000000E+00   0.00000000000000E+00
      2.94349729119293E-07  -7.43391801960984E-20   2.94349729119219E-07   3.61106886675825E-16
      7.66666666666667E-01
      7.66666666666667E-02   7.66666666666667E-02   0.00000000000000E+00   0.00000000000000E+00   0.00000000000000E+00
      0.00000000000000E+00   0.00000000000000E+00  -4.50957212214949E-16   0.00000000000000E+00   0.00000000000000E+00
      0.00000000000000E+00   0.00000000000000E+00  -3.14582213375998E-07  -4.40198184831357E-23  -3.14582213375998E-07
      9.21623868015612E-17   7.50000000000000E-01   7.50000000000000E-01   0.00000000000000E+00   0.00000000000000E+00
      3.11414445547403E-07  -2.74626109649717E-20   3.11414445547375E-07   3.60537398684919E-16
      7.83333333333334E-01
      7.83333333333334E-02   7.83333333333334E-02   0.00000000000000E+00   0.00000000000000E+00   0.00000000000000E+00
      0.00000000000000E+00   0.00000000000000E+00  -4.49745362441546E-16   0.00000000000000E+00   0.00000000000000E+00
      0.00000000000000E+00   0.00000000000000E+00  -3.33228742178755E-07   3.06438242777494E-20  -3.33228742178724E-07
      9.15331395321988E-17   7.50000000000000E-01   7.50000000000000E-01   0.00000000000000E+00   0.00000000000000E+00
      3.30190985780987E-07  -5.30958573195807E-20   3.30190985780934E-07   3.59967827999861E-16
      8.00000000000001E-01
      8.00000000000001E-02   8.00000000000001E-02   0.00000000000000E+00   0.00000000000000E+00   0.00000000000000E+00
      0.00000000000000E+00   0.00000000000000E+00  -4.48532906055076E-16   0.00000000000000E+00   0.00000000000000E+00