DF-ISE text

Info {
  version   = 1.0
  type      = xyplot
  datasets  = [
    "time"
    "gate OuterVoltage" "gate InnerVoltage" "gate QuasiFermiPotential" "gate DisplacementCurrent" "gate eCurrent"
    "gate hCurrent" "gate TotalCurrent" "gate Charge" "source OuterVoltage" "source InnerVoltage"
    "source QuasiFermiPotential" "source DisplacementCurrent" "source eCurrent" "source hCurrent" "source TotalCurrent"
    "source Charge" "drain OuterVoltage" "drain InnerVoltage" "drain QuasiFermiPotential" "drain DisplacementCurrent"
    "drain eCurrent" "drain hCurrent" "drain TotalCurrent" "drain Charge" ]
  functions = [
    Time
    OuterVoltage InnerVoltage QuasiFermiPotential DisplacementCurrent eCurrent
    hCurrent TotalCurrent Charge OuterVoltage InnerVoltage
    QuasiFermiPotential DisplacementCurrent eCurrent hCurrent TotalCurrent
    Charge OuterVoltage InnerVoltage QuasiFermiPotential DisplacementCurrent
    eCurrent hCurrent TotalCurrent Charge ]
}

Data {
      0.00000000000000E+00
      0.00000000000000E+00   0.00000000000000E+00   0.00000000000000E+00   0.00000000000000E+00   0.00000000000000E+00
      0.00000000000000E+00   0.00000000000000E+00  -9.68715436532965E-16   0.00000000000000E+00   0.00000000000000E+00
      0.00000000000000E+00   0.00000000000000E+00  -1.27827525670910E-08  -2.58255447976677E-27  -1.27827525670910E-08
      1.87549291348992E-16   1.50000000000000E+00   1.50000000000000E+00   0.00000000000000E+00   0.00000000000000E+00
      1.27827525640954E-08   6.30475560060021E-26   1.27827525640954E-08   9.25545306181971E-16
      1.66666666666667E-02
      2.50000000000000E-02   2.50000000000000E-02   0.00000000000000E+00   0.00000000000000E+00   0.00000000000000E+00
      0.00000000000000E+00   0.00000000000000E+00  -9.42166624829367E-16   0.00000000000000E+00   0.00000000000000E+00
      0.00000000000000E+00   0.00000000000000E+00  -3.16873161783602E-08   4.41156175339994E-26  -3.16873161783602E-08
      1.77488579363797E-16   1.50000000000000E+00   1.50000000000000E+00   0.00000000000000E+00   0.00000000000000E+00
      3.16873162393599E-08  -7.07760067999845E-24   3.16873162393599E-08   9.12843751104932E-16
      3.33333333333333E-02
      5.00000000000000E-02   5.00000000000000E-02   0.00000000000000E+00   0.00000000000000E+00   0.00000000000000E+00
      0.00000000000000E+00   0.00000000000000E+00  -9.15313540377743E-16   0.00000000000000E+00   0.00000000000000E+00
      0.00000000000000E+00   0.00000000000000E+00  -7.80715367082754E-08   1.12470069806310E-22  -7.80715367082753E-08
      1.67668040233290E-16   1.50000000000000E+00   1.50000000000000E+00   0.00000000000000E+00   0.00000000000000E+00
      7.80713909160074E-08   4.80800638400243E-23   7.80713909160074E-08   9.00144764176121E-16
      5.00000000000000E-02
      7.50000000000000E-02   7.50000000000000E-02   0.00000000000000E+00   0.00000000000000E+00   0.00000000000000E+00
      0.00000000000000E+00   0.00000000000000E+00  -8.87986422650713E-16   0.00000000000000E+00   0.00000000000000E+00
      0.00000000000000E+00   0.00000000000000E+00  -1.90564347686070E-07   4.05401207114356E-24  -1.90564347686070E-07
      1.58114979098894E-16   1.50000000000000E+00   1.50000000000000E+00   0.00000000000000E+00   0.00000000000000E+00
      1.90564347528136E-07  -1.95554584731176E-24   1.90564347528136E-07   8.87451923770472E-16
      6.66666666666667E-02
      1.00000000000000E-01   1.00000000000000E-01   0.00000000000000E+00   0.00000000000000E+00   0.00000000000000E+00
      0.00000000000000E+00   0.00000000000000E+00  -8.59885657381425E-16   0.00000000000000E+00   0.00000000000000E+00
      0.00000000000000E+00   0.00000000000000E+00  -4.58259855012622E-07   7.11644147239740E-25  -4.58259855012622E-07
      1.48860160890337E-16   1.50000000000000E+00   1.50000000000000E+00   0.00000000000000E+00   0.00000000000000E+00
      4.58259854358908E-07  -3.61787033582178E-24   4.58259854358908E-07   8.74773326121108E-16
      8.33333333333333E-02
      1.25000000000000E-01   1.25000000000000E-01   0.00000000000000E+00   0.00000000000000E+00   0.00000000000000E+00
      0.00000000000000E+00   0.00000000000000E+00  -8.30491430877698E-16   0.00000000000000E+00   0.00000000000000E+00
      0.00000000000000E+00   0.00000000000000E+00  -1.07360899113602E-06   3.25787929151880E-26  -1.07360899113602E-06
      1.39935351579601E-16   1.50000000000000E+00   1.50000000000000E+00   0.00000000000000E+00   0.00000000000000E+00
      1.07360899047159E-06  -2.23022211059425E-23   1.07360899047159E-06   8.62125853962558E-16
      1.00000000000000E-01
      1.50000000000000E-01   1.50000000000000E-01   0.00000000000000E+00   0.00000000000000E+00   0.00000000000000E+00
      0.00000000000000E+00   0.00000000000000E+00  -7.98965037470461E-16   0.00000000000000E+00   0.00000000000000E+00
      0.00000000000000E+00   0.00000000000000E+00  -2.40870113366689E-06   9.23577494202984E-20  -2.40870113366680E-06
      1.31368060388848E-16   1.50000000000000E+00   1.50000000000000E+00   0.00000000000000E+00   0.00000000000000E+00
      2.40897020264916E-06  -2.01983860836970E-20   2.40897020264914E-06   8.49541235372172E-16
      1.16666666666667E-01
      1.75000000000000E-01   1.75000000000000E-01   0.00000000000000E+00   0.00000000000000E+00   0.00000000000000E+00
      0.00000000000000E+00   0.00000000000000E+00  -7.64129822496004E-16   0.00000000000000E+00   0.00000000000000E+00
      0.00000000000000E+00   0.00000000000000E+00  -5.07225982500823E-06   1.17900542767541E-19  -5.07225982500811E-06
      1.23173932938544E-16   1.50000000000000E+00   1.50000000000000E+00   0.00000000000000E+00   0.00000000000000E+00
      5.07272790077783E-06  -5.82013319434678E-20   5.07272790077777E-06   8.37070255232757E-16
      1.33333333333333E-01
      2.00000000000000E-01   2.00000000000000E-01   0.00000000000000E+00   0.00000000000000E+00   0.00000000000000E+00
      0.00000000000000E+00   0.00000000000000E+00  -7.24674046658033E-16   0.00000000000000E+00   0.00000000000000E+00
      0.00000000000000E+00   0.00000000000000E+00  -9.83788217581498E-06  -6.24337386743212E-25  -9.83788217581498E-06
      1.15350285420991E-16   1.50000000000000E+00   1.50000000000000E+00   0.00000000000000E+00   0.00000000000000E+00
      9.83788217639990E-06  -2.76146915837056E-21   9.83788217639989E-06   8.24775101404373E-16
      1.50000000000000E-01
      2.25000000000000E-01   2.25000000000000E-01   0.00000000000000E+00   0.00000000000000E+00   0.00000000000000E+00
      0.00000000000000E+00   0.00000000000000E+00  -6.79434973189964E-16   0.00000000000000E+00   0.00000000000000E+00
      0.00000000000000E+00   0.00000000000000E+00  -1.74568591791521E-05  -1.97933492488784E-24  -1.74568591791521E-05
      1.07877773011012E-16   1.50000000000000E+00   1.50000000000000E+00   0.00000000000000E+00   0.00000000000000E+00
      1.74568591797238E-05  -3.35526942698053E-21   1.74568591797238E-05   8.12712398722119E-16
      1.66666666666667E-01
      2.50000000000000E-01   2.50000000000000E-01   0.00000000000000E+00   0.00000000000000E+00   0.00000000000000E+00
      0.00000000000000E+00   0.00000000000000E+00  -6.27683136849804E-16   0.00000000000000E+00   0.00000000000000E+00
      0.00000000000000E+00   0.00000000000000E+00  -2.84542853650618E-05   1.33217162522493E-21  -2.84542853650618E-05
      1.00722964026397E-16   1.50000000000000E+00   1.50000000000000E+00   0.00000000000000E+00   0.00000000000000E+00
      2.84542846023525E-05   1.86547807349833E-20   2.84542846023525E-05   8.00915427719556E-16
      1.83333333333333E-01
      2.75000000000000E-01   2.75000000000000E-01   0.00000000000000E+00   0.00000000000000E+00   0.00000000000000E+00
      0.00000000000000E+00   0.00000000000000E+00  -5.69098702512321E-16   0.00000000000000E+00   0.00000000000000E+00
      0.00000000000000E+00   0.00000000000000E+00  -4.31077323907515E-05  -2.69948488427437E-21  -4.31077323907515E-05
      9.38505447879789E-17   1.50000000000000E+00   1.50000000000000E+00   0.00000000000000E+00   0.00000000000000E+00
      4.31077291455281E-05   5.72832966586945E-21   4.31077291455281E-05   7.89392822998329E-16
      2.00000000000000E-01
      3.00000000000000E-01   3.00000000000000E-01   0.00000000000000E+00   0.00000000000000E+00   0.00000000000000E+00
      0.00000000000000E+00   0.00000000000000E+00  -5.03755491739868E-16   0.00000000000000E+00   0.00000000000000E+00
      0.00000000000000E+00   0.00000000000000E+00  -6.14857690616479E-05   9.64569155954168E-25  -6.14857690616479E-05
      8.72229882402048E-17   1.50000000000000E+00   1.50000000000000E+00   0.00000000000000E+00   0.00000000000000E+00
      6.14857690517269E-05  -8.32669299961551E-25   6.14857690517269E-05   7.78132488863165E-16
      2.16666666666667E-01
      3.25000000000000E-01   3.25000000000000E-01   0.00000000000000E+00   0.00000000000000E+00   0.00000000000000E+00
      0.00000000000000E+00   0.00000000000000E+00  -4.31913803501348E-16   0.00000000000000E+00   0.00000000000000E+00
      0.00000000000000E+00   0.00000000000000E+00  -8.35039516955115E-05   3.60232114528908E-22  -8.35039516955115E-05
      8.08048641632586E-17   1.50000000000000E+00   1.50000000000000E+00   0.00000000000000E+00   0.00000000000000E+00
      8.35039494682675E-05   2.92453036709463E-23   8.35039494682675E-05   7.67110819415666E-16
      2.33333333333333E-01
      3.50000000000000E-01   3.50000000000000E-01   0.00000000000000E+00   0.00000000000000E+00   0.00000000000000E+00
      0.00000000000000E+00   0.00000000000000E+00  -3.53985632635370E-16   0.00000000000000E+00   0.00000000000000E+00
      0.00000000000000E+00   0.00000000000000E+00  -1.08993893163052E-04  -2.08282516579300E-22  -1.08993893163052E-04
      7.45640473781589E-17   1.50000000000000E+00   1.50000000000000E+00   0.00000000000000E+00   0.00000000000000E+00
      1.08993892385741E-04  -1.22530636083665E-24   1.08993892385741E-04   7.56296197768666E-16
      2.50000000000000E-01
      3.75000000000000E-01   3.75000000000000E-01   0.00000000000000E+00   0.00000000000000E+00   0.00000000000000E+00
      0.00000000000000E+00   0.00000000000000E+00  -2.70515157640412E-16   0.00000000000000E+00   0.00000000000000E+00
      0.00000000000000E+00   0.00000000000000E+00  -1.37762624639559E-04   9.02573377007706E-21  -1.37762624639559E-04
      6.84722451751648E-17   1.50000000000000E+00   1.50000000000000E+00   0.00000000000000E+00   0.00000000000000E+00
      1.37762577922809E-04   1.08614697590069E-21   1.37762577922809E-04   7.45652879136227E-16
      2.66666666666667E-01
      4.00000000000000E-01   4.00000000000000E-01   0.00000000000000E+00   0.00000000000000E+00   0.00000000000000E+00
      0.00000000000000E+00   0.00000000000000E+00  -1.82079208014266E-16   0.00000000000000E+00   0.00000000000000E+00
      0.00000000000000E+00   0.00000000000000E+00  -1.69606917859572E-04  -1.17011310111051E-20  -1.69606917859572E-04
      6.25051897147192E-17   1.50000000000000E+00   1.50000000000000E+00   0.00000000000000E+00   0.00000000000000E+00
      1.69606867770497E-04  -1.04529060911651E-20   1.69606867770497E-04   7.35144977273004E-16
      2.83333333333333E-01
      4.25000000000000E-01   4.25000000000000E-01   0.00000000000000E+00   0.00000000000000E+00   0.00000000000000E+00
      0.00000000000000E+00   0.00000000000000E+00  -8.90717564499698E-17   0.00000000000000E+00   0.00000000000000E+00
      0.00000000000000E+00   0.00000000000000E+00  -2.04273712803495E-04   1.14469822047090E-20  -2.04273712803495E-04
      5.66426469298866E-17   1.50000000000000E+00   1.50000000000000E+00   0.00000000000000E+00   0.00000000000000E+00
      2.04273032812867E-04  -5.32274981943946E-20   2.04273032812867E-04   7.24744515135815E-16
      3.00000000000000E-01
      4.50000000000000E-01   4.50000000000000E-01   0.00000000000000E+00   0.00000000000000E+00   0.00000000000000E+00
      0.00000000000000E+00   0.00000000000000E+00   8.02848655990607E-18   0.00000000000000E+00   0.00000000000000E+00
      0.00000000000000E+00   0.00000000000000E+00  -2.41538660010314E-04   5.72431587813210E-22  -2.41538660010314E-04
      5.08676524429734E-17   1.50000000000000E+00   1.50000000000000E+00   0.00000000000000E+00   0.00000000000000E+00
      2.41538676085500E-04   1.47873475467912E-22   2.41538676085500E-04   7.14419595365305E-16
      3.16666666666667E-01
      4.75000000000000E-01   4.75000000000000E-01   0.00000000000000E+00   0.00000000000000E+00   0.00000000000000E+00
      0.00000000000000E+00   0.00000000000000E+00   1.08745306859360E-16   0.00000000000000E+00   0.00000000000000E+00
      0.00000000000000E+00   0.00000000000000E+00  -2.81230689236645E-04  -2.10873463634370E-21  -2.81230689236645E-04
      4.51660584629782E-17   1.50000000000000E+00   1.50000000000000E+00   0.00000000000000E+00   0.00000000000000E+00
      2.81212244225652E-04  -1.94336123001399E-21   2.81212244225652E-04   7.04140672387161E-16
      3.33333333333333E-01
      5.00000000000000E-01   5.00000000000000E-01   0.00000000000000E+00   0.00000000000000E+00   0.00000000000000E+00
      0.00000000000000E+00   0.00000000000000E+00   2.12646104924138E-16   0.00000000000000E+00   0.00000000000000E+00
      0.00000000000000E+00   0.00000000000000E+00  -3.23111446391473E-04  -3.20744484449876E-21  -3.23111446391473E-04
      3.95263463035479E-17   1.50000000000000E+00   1.50000000000000E+00   0.00000000000000E+00   0.00000000000000E+00
      3.23093951315342E-04   2.37329301508348E-22   3.23093951315342E-04   6.93880764189943E-16
      3.50000000000000E-01
      5.25000000000000E-01   5.25000000000000E-01   0.00000000000000E+00   0.00000000000000E+00   0.00000000000000E+00
      0.00000000000000E+00   0.00000000000000E+00   3.19352703373521E-16   0.00000000000000E+00   0.00000000000000E+00
      0.00000000000000E+00   0.00000000000000E+00  -3.67034681737074E-04   6.38761907744123E-22  -3.67034681737074E-04
      3.39389085349010E-17   1.50000000000000E+00   1.50000000000000E+00   0.00000000000000E+00   0.00000000000000E+00
      3.67018998168180E-04  -1.18900356625748E-20   3.67018998168180E-04   6.83618197373777E-16
      3.66666666666667E-01
      5.50000000000000E-01   5.50000000000000E-01   0.00000000000000E+00   0.00000000000000E+00   0.00000000000000E+00
      0.00000000000000E+00   0.00000000000000E+00   4.28749862295386E-16   0.00000000000000E+00   0.00000000000000E+00
      0.00000000000000E+00   0.00000000000000E+00  -4.12772669325333E-04  -8.84360168783863E-22  -4.12772669325333E-04
      2.83961161965319E-17   1.50000000000000E+00   1.50000000000000E+00   0.00000000000000E+00   0.00000000000000E+00
      4.12774394475286E-04  -3.83820281555533E-21   4.12774394475286E-04   6.73348265856889E-16
      3.83333333333333E-01
      5.75000000000000E-01   5.75000000000000E-01   0.00000000000000E+00   0.00000000000000E+00   0.00000000000000E+00
      0.00000000000000E+00   0.00000000000000E+00   5.40493451909514E-16   0.00000000000000E+00   0.00000000000000E+00
      0.00000000000000E+00   0.00000000000000E+00  -4.60182984332833E-04  -1.14773012956962E-21  -4.60182984332833E-04
      2.28913414986433E-17   1.50000000000000E+00   1.50000000000000E+00   0.00000000000000E+00   0.00000000000000E+00
      4.60173636238395E-04   1.81549832200881E-20   4.60173636238395E-04   6.63049245367058E-16
      4.00000000000000E-01
      6.00000000000000E-01   6.00000000000000E-01   0.00000000000000E+00   0.00000000000000E+00   0.00000000000000E+00
      0.00000000000000E+00   0.00000000000000E+00   6.54325122417409E-16   0.00000000000000E+00   0.00000000000000E+00
      0.00000000000000E+00   0.00000000000000E+00  -5.09108832571187E-04   2.59263567741546E-22  -5.09108832571187E-04
      1.74193087553749E-17   1.50000000000000E+00   1.50000000000000E+00   0.00000000000000E+00   0.00000000000000E+00
      5.09100890322766E-04   2.86416022667344E-21   5.09100890322766E-04   6.52706285224748E-16
      4.16666666666667E-01
      6.25000000000000E-01   6.25000000000000E-01   0.00000000000000E+00   0.00000000000000E+00   0.00000000000000E+00
      0.00000000000000E+00   0.00000000000000E+00   7.70017549539212E-16   0.00000000000000E+00   0.00000000000000E+00
      0.00000000000000E+00   0.00000000000000E+00  -5.59452909756748E-04   9.68669833249089E-21  -5.59452909756748E-04
      1.19754199967766E-17   1.50000000000000E+00   1.50000000000000E+00   0.00000000000000E+00   0.00000000000000E+00
      5.59468245258588E-04   1.64799301813123E-21   5.59468245258588E-04   6.42308480851615E-16
      4.33333333333333E-01
      6.50000000000000E-01   6.50000000000000E-01   0.00000000000000E+00   0.00000000000000E+00   0.00000000000000E+00
      0.00000000000000E+00   0.00000000000000E+00   8.87338767118016E-16   0.00000000000000E+00   0.00000000000000E+00
      0.00000000000000E+00   0.00000000000000E+00  -6.11021024482896E-04  -9.61480780270244E-23  -6.11021024482896E-04
      6.55607306084145E-18   1.50000000000000E+00   1.50000000000000E+00   0.00000000000000E+00   0.00000000000000E+00
      6.11021509990748E-04   3.58787489758071E-21   6.11021509990748E-04   6.31841092361233E-16
      4.50000000000000E-01
      6.75000000000000E-01   6.75000000000000E-01   0.00000000000000E+00   0.00000000000000E+00   0.00000000000000E+00
      0.00000000000000E+00   0.00000000000000E+00   1.00610684977858E-15   0.00000000000000E+00   0.00000000000000E+00
      0.00000000000000E+00   0.00000000000000E+00  -6.63751145705264E-04  -7.79313491509411E-23  -6.63751145705264E-04
      1.15803405269212E-18   1.50000000000000E+00   1.50000000000000E+00   0.00000000000000E+00   0.00000000000000E+00
      6.63751073401088E-04  -2.23709898812014E-22   6.63751073401088E-04   6.21297537022800E-16
      4.66666666666667E-01
      7.00000000000000E-01   7.00000000000000E-01   0.00000000000000E+00   0.00000000000000E+00   0.00000000000000E+00
      0.00000000000000E+00   0.00000000000000E+00   1.12616878246525E-15   0.00000000000000E+00   0.00000000000000E+00
      0.00000000000000E+00   0.00000000000000E+00  -7.17561811060798E-04  -2.13646401242877E-23  -7.17561811060798E-04
     -4.22141242488956E-18   1.50000000000000E+00   1.50000000000000E+00   0.00000000000000E+00   0.00000000000000E+00
      7.17563155789649E-04  -4.54080871534881E-22   7.17563155789649E-04   6.10673855479163E-16
      4.83333333333333E-01
      7.25000000000000E-01   7.25000000000000E-01   0.00000000000000E+00   0.00000000000000E+00   0.00000000000000E+00
      0.00000000000000E+00   0.00000000000000E+00   1.24760708956589E-15   0.00000000000000E+00   0.00000000000000E+00
      0.00000000000000E+00   0.00000000000000E+00  -7.72232707127643E-04  -2.17200741186470E-23  -7.72232707127643E-04
     -9.58421311158588E-18   1.50000000000000E+00   1.50000000000000E+00   0.00000000000000E+00   0.00000000000000E+00
      7.72225967859812E-04  -9.09966632559802E-22   7.72225967859812E-04   5.99986558119025E-16
      5.00000000000000E-01
      7.50000000000000E-01   7.50000000000000E-01   0.00000000000000E+00   0.00000000000000E+00   0.00000000000000E+00
      0.00000000000000E+00   0.00000000000000E+00   1.37021921945290E-15   0.00000000000000E+00   0.00000000000000E+00
      0.00000000000000E+00   0.00000000000000E+00  -8.27729052030514E-04  -5.74991232831842E-23  -8.27729052030514E-04
     -1.49324249845667E-17   1.50000000000000E+00   1.50000000000000E+00   0.00000000000000E+00   0.00000000000000E+00
      8.27717728085503E-04   9.03117523849639E-22   8.27717728085503E-04   5.89223447829773E-16
      5.16666666666667E-01
      7.75000000000000E-01   7.75000000000000E-01   0.00000000000000E+00   0.00000000000000E+00   0.00000000000000E+00
      0.00000000000000E+00   0.00000000000000E+00   1.49387564457576E-15   0.00000000000000E+00   0.00000000000000E+00
      0.00000000000000E+00   0.00000000000000E+00  -8.83961052441450E-04   3.91184765190061E-23  -8.83961052441450E-04
     -2.02676665785484E-17   1.50000000000000E+00   1.50000000000000E+00   0.00000000000000E+00   0.00000000000000E+00
      8.83951872790608E-04  -1.00719052466072E-21   8.83951872790608E-04   5.78377553131506E-16
      5.33333333333333E-01
      8.00000000000000E-01   8.00000000000000E-01   0.00000000000000E+00   0.00000000000000E+00   0.00000000000000E+00
      0.00000000000000E+00   0.00000000000000E+00   1.61846960330533E-15   0.00000000000000E+00   0.00000000000000E+00
      0.00000000000000E+00   0.00000000000000E+00  -9.40863044871716E-04   3.27451818719964E-24  -9.40863044871716E-04
     -2.55913664873638E-17   1.50000000000000E+00   1.50000000000000E+00   0.00000000000000E+00   0.00000000000000E+00
      9.40862083366812E-04   5.82816639830303E-22   9.40862083366812E-04   5.67445483322583E-16
      5.50000000000000E-01
      8.25000000000000E-01   8.25000000000000E-01   0.00000000000000E+00   0.00000000000000E+00   0.00000000000000E+00
      0.00000000000000E+00   0.00000000000000E+00   1.74391038225218E-15   0.00000000000000E+00   0.00000000000000E+00
      0.00000000000000E+00   0.00000000000000E+00  -9.98347086171773E-04   2.07793338818842E-24  -9.98347086171773E-04
     -3.09047105828566E-17   1.50000000000000E+00   1.50000000000000E+00   0.00000000000000E+00   0.00000000000000E+00
      9.98349255884304E-04  -3.09937739745193E-22   9.98349255884304E-04   5.56424370632839E-16
      5.66666666666667E-01
      8.50000000000000E-01   8.50000000000000E-01   0.00000000000000E+00   0.00000000000000E+00   0.00000000000000E+00
      0.00000000000000E+00   0.00000000000000E+00   1.87011312284229E-15   0.00000000000000E+00   0.00000000000000E+00
      0.00000000000000E+00   0.00000000000000E+00  -1.05634367795217E-03  -2.46896382360157E-22  -1.05634367795217E-03
     -3.62087503556590E-17   1.50000000000000E+00   1.50000000000000E+00   0.00000000000000E+00   0.00000000000000E+00
      1.05633863373662E-03   2.26588793664173E-22   1.05633863373662E-03   5.45312369487294E-16
      5.83333333333333E-01
      8.75000000000000E-01   8.75000000000000E-01   0.00000000000000E+00   0.00000000000000E+00   0.00000000000000E+00
      0.00000000000000E+00   0.00000000000000E+00   1.99700999042808E-15   0.00000000000000E+00   0.00000000000000E+00
      0.00000000000000E+00   0.00000000000000E+00  -1.11480455600263E-03   2.59679369234426E-23  -1.11480455600263E-03
     -4.15044184792949E-17   1.50000000000000E+00   1.50000000000000E+00   0.00000000000000E+00   0.00000000000000E+00
      1.11480483842502E-03   1.58600158272173E-23   1.11480483842502E-03   5.34108859019695E-16
      6.00000000000000E-01
      9.00000000000000E-01   9.00000000000000E-01   0.00000000000000E+00   0.00000000000000E+00   0.00000000000000E+00
      0.00000000000000E+00   0.00000000000000E+00   2.12452938600178E-15   0.00000000000000E+00   0.00000000000000E+00
      0.00000000000000E+00   0.00000000000000E+00  -1.17367561593259E-03   2.86773391621071E-22  -1.17367561593259E-03
     -4.67925153223703E-17   1.50000000000000E+00   1.50000000000000E+00   0.00000000000000E+00   0.00000000000000E+00
      1.17367543200730E-03  -7.84092143640456E-23   1.17367543200730E-03   5.22812234002742E-16
      6.16666666666667E-01
      9.25000000000000E-01   9.25000000000000E-01   0.00000000000000E+00   0.00000000000000E+00   0.00000000000000E+00
      0.00000000000000E+00   0.00000000000000E+00   2.25260303062926E-15   0.00000000000000E+00   0.00000000000000E+00
      0.00000000000000E+00   0.00000000000000E+00  -1.23290361414733E-03   1.88651036332090E-21  -1.23290361414733E-03
     -5.20737426846571E-17   1.50000000000000E+00   1.50000000000000E+00   0.00000000000000E+00   0.00000000000000E+00
      1.23290357768338E-03  -1.34215473207025E-21   1.23290357768338E-03   5.11420645608263E-16
      6.33333333333334E-01
      9.50000000000000E-01   9.50000000000000E-01   0.00000000000000E+00   0.00000000000000E+00   0.00000000000000E+00
      0.00000000000000E+00   0.00000000000000E+00   2.38114960645235E-15   0.00000000000000E+00   0.00000000000000E+00
      0.00000000000000E+00   0.00000000000000E+00  -1.29245064847461E-03  -6.82403837837969E-21  -1.29245064847461E-03
     -5.73487368095903E-17   1.50000000000000E+00   1.50000000000000E+00   0.00000000000000E+00   0.00000000000000E+00
      1.29245096333149E-03  -2.51369911026853E-21   1.29245096333149E-03   4.99929594771823E-16
      6.50000000000000E-01
      9.75000000000001E-01   9.75000000000001E-01   0.00000000000000E+00   0.00000000000000E+00   0.00000000000000E+00
      0.00000000000000E+00   0.00000000000000E+00   2.51017520919144E-15   0.00000000000000E+00   0.00000000000000E+00
      0.00000000000000E+00   0.00000000000000E+00  -1.35225916410757E-03   6.21895302504553E-21  -1.35225916410757E-03
     -6.26180126155605E-17   1.50000000000000E+00   1.50000000000000E+00   0.00000000000000E+00   0.00000000000000E+00
      1.35225578222949E-03   2.12972388933144E-20   1.35225578222949E-03   4.88349608670079E-16
      6.66666666666667E-01
      1.00000000000000E+00   1.00000000000000E+00   0.00000000000000E+00   0.00000000000000E+00   0.00000000000000E+00
      0.00000000000000E+00   0.00000000000000E+00   2.63983598658162E-15   0.00000000000000E+00   0.00000000000000E+00
      0.00000000000000E+00   0.00000000000000E+00  -1.41222679637498E-03  -6.30329583507607E-24  -1.41222679637498E-03
     -6.78819053869511E-17   1.50000000000000E+00   1.50000000000000E+00   0.00000000000000E+00   0.00000000000000E+00
      1.41222030064238E-03   1.43062757033101E-22   1.41222030064238E-03   4.76714507146123E-16
      6.83333333333334E-01
      1.02500000000000E+00   1.02500000000000E+00   0.00000000000000E+00   0.00000000000000E+00   0.00000000000000E+00
      0.00000000000000E+00   0.00000000000000E+00   2.76996731337888E-15   0.00000000000000E+00   0.00000000000000E+00
      0.00000000000000E+00   0.00000000000000E+00  -1.47235576610674E-03  -1.72364483796208E-22  -1.47235576610674E-03
     -7.31409501878776E-17   1.50000000000000E+00   1.50000000000000E+00   0.00000000000000E+00   0.00000000000000E+00
      1.47235615533546E-03   1.08922982348158E-22   1.47235615533546E-03   4.65006712555161E-16
      7.00000000000001E-01
      1.05000000000000E+00   1.05000000000000E+00   0.00000000000000E+00   0.00000000000000E+00   0.00000000000000E+00
      0.00000000000000E+00   0.00000000000000E+00   2.90052743047370E-15   0.00000000000000E+00   0.00000000000000E+00
      0.00000000000000E+00   0.00000000000000E+00  -1.53261154018210E-03   5.89324060255754E-22  -1.53261154018210E-03
     -7.83955237880915E-17   1.50000000000000E+00   1.50000000000000E+00   0.00000000000000E+00   0.00000000000000E+00
      1.53261026368126E-03   1.79715530271763E-21   1.53261026368126E-03   4.53221747823333E-16
      7.16666666666667E-01
      1.07500000000000E+00   1.07500000000000E+00   0.00000000000000E+00   0.00000000000000E+00   0.00000000000000E+00
      0.00000000000000E+00   0.00000000000000E+00   3.03146975494342E-15   0.00000000000000E+00   0.00000000000000E+00
      0.00000000000000E+00   0.00000000000000E+00  -1.59296770401261E-03  -4.69350673834124E-20  -1.59296770401261E-03
     -8.36459691685242E-17   1.50000000000000E+00   1.50000000000000E+00   0.00000000000000E+00   0.00000000000000E+00
      1.59296427969435E-03   1.22123066412177E-20   1.59296427969435E-03   4.41359214513698E-16
      7.33333333333334E-01
      1.10000000000000E+00   1.10000000000000E+00   0.00000000000000E+00   0.00000000000000E+00   0.00000000000000E+00
      0.00000000000000E+00   0.00000000000000E+00   3.16276623990313E-15   0.00000000000000E+00   0.00000000000000E+00
      0.00000000000000E+00   0.00000000000000E+00  -1.65339021113156E-03   9.78676292192062E-21  -1.65339021113156E-03
     -8.88925952232082E-17   1.50000000000000E+00   1.50000000000000E+00   0.00000000000000E+00   0.00000000000000E+00
      1.65339207986864E-03   8.84493854047130E-23   1.65339207986864E-03   4.29420063985144E-16
      7.50000000000001E-01
      1.12500000000000E+00   1.12500000000000E+00   0.00000000000000E+00   0.00000000000000E+00   0.00000000000000E+00
      0.00000000000000E+00   0.00000000000000E+00   3.29438341636724E-15   0.00000000000000E+00   0.00000000000000E+00
      0.00000000000000E+00   0.00000000000000E+00  -1.71386577376389E-03   2.11603707876974E-22  -1.71386577376389E-03
     -9.41356974090952E-17   1.50000000000000E+00   1.50000000000000E+00   0.00000000000000E+00   0.00000000000000E+00
      1.71386026524675E-03   1.13269616032387E-21   1.71386026524675E-03   4.17405425053889E-16
      7.66666666666667E-01
      1.15000000000000E+00   1.15000000000000E+00   0.00000000000000E+00   0.00000000000000E+00   0.00000000000000E+00
      0.00000000000000E+00   0.00000000000000E+00   3.42630859666079E-15   0.00000000000000E+00   0.00000000000000E+00
      0.00000000000000E+00   0.00000000000000E+00  -1.77435192400236E-03  -8.94998021258705E-21  -1.77435192400236E-03
     -9.93754923309668E-17   1.50000000000000E+00   1.50000000000000E+00   0.00000000000000E+00   0.00000000000000E+00
      1.77435134212174E-03   1.17783777281989E-20   1.77435134212174E-03   4.05317142473048E-16
      7.83333333333334E-01
      1.17500000000000E+00   1.17500000000000E+00   0.00000000000000E+00   0.00000000000000E+00   0.00000000000000E+00
      0.00000000000000E+00   0.00000000000000E+00   3.55851690909561E-15   0.00000000000000E+00   0.00000000000000E+00
      0.00000000000000E+00   0.00000000000000E+00  -1.83483882132027E-03   1.31522579907461E-23  -1.83483882132027E-03
     -1.04612226952245E-16   1.50000000000000E+00   1.50000000000000E+00   0.00000000000000E+00   0.00000000000000E+00
      1.83483884914057E-03  -2.42597571359538E-22   1.83483884914057E-03   3.93156768121704E-16
      8.00000000000001E-01
      1.20000000000000E+00   1.20000000000000E+00   0.00000000000000E+00   0.00000000000000E+00   0.00000000000000E+00
      0.00000000000000E+00   0.00000000000000E+00   3.69099895352512E-15   0.00000000000000E+00   0.00000000000000E+00