DF-ISE text

Info {
  version   = 1.0
  type      = xyplot
  datasets  = [
    "time"
    "gate OuterVoltage" "gate InnerVoltage" "gate QuasiFermiPotential" "gate DisplacementCurrent" "gate eCurrent"
    "gate hCurrent" "gate TotalCurrent" "gate Charge" "source OuterVoltage" "source InnerVoltage"
    "source QuasiFermiPotential" "source DisplacementCurrent" "source eCurrent" "source hCurrent" "source TotalCurrent"
    "source Charge" "drain OuterVoltage" "drain InnerVoltage" "drain QuasiFermiPotential" "drain DisplacementCurrent"
    "drain eCurrent" "drain hCurrent" "drain TotalCurrent" "drain Charge" ]
  functions = [
    Time
    OuterVoltage InnerVoltage QuasiFermiPotential DisplacementCurrent eCurrent
    hCurrent TotalCurrent Charge OuterVoltage InnerVoltage
    QuasiFermiPotential DisplacementCurrent eCurrent hCurrent TotalCurrent
    Charge OuterVoltage InnerVoltage QuasiFermiPotential DisplacementCurrent
    eCurrent hCurrent TotalCurrent Charge ]
}

Data {
      0.00000000000000E+00
      0.00000000000000E+00   0.00000000000000E+00   0.00000000000000E+00   0.00000000000000E+00   0.00000000000000E+00
      0.00000000000000E+00   0.00000000000000E+00  -5.73752697227404E-16   0.00000000000000E+00   0.00000000000000E+00
      0.00000000000000E+00   0.00000000000000E+00  -4.11818254216412E-08  -9.58672405200597E-28  -4.11818254216412E-08
      1.10925690151083E-16   1.00000000000000E+00   1.00000000000000E+00   0.00000000000000E+00   0.00000000000000E+00
      4.11818254216028E-08   3.25189486572553E-21   4.11818254216060E-08   4.64025693519141E-16
      1.66666666666667E-02
      1.66666666666667E-02   1.66666666666667E-02   0.00000000000000E+00   0.00000000000000E+00   0.00000000000000E+00
      0.00000000000000E+00   0.00000000000000E+00  -5.61829493900949E-16   0.00000000000000E+00   0.00000000000000E+00
      0.00000000000000E+00   0.00000000000000E+00  -7.44247160795455E-08  -3.02344263865454E-19  -7.44247160798479E-08
      1.04602980930445E-16   1.00000000000000E+00   1.00000000000000E+00   0.00000000000000E+00   0.00000000000000E+00
      7.44262293795417E-08   3.92542591745139E-17   7.44262294187960E-08   4.58441641295940E-16
      3.33333333333333E-02
      3.33333333333333E-02   3.33333333333333E-02   0.00000000000000E+00   0.00000000000000E+00   0.00000000000000E+00
      0.00000000000000E+00   0.00000000000000E+00  -5.49862002341803E-16   0.00000000000000E+00   0.00000000000000E+00
      0.00000000000000E+00   0.00000000000000E+00  -1.34261633408471E-07   7.08635549039982E-25  -1.34261633408471E-07
      9.82517095123957E-17   1.00000000000000E+00   1.00000000000000E+00   0.00000000000000E+00   0.00000000000000E+00
      1.34261633410336E-07   7.88197378693610E-19   1.34261633411124E-07   4.52850382173611E-16
      5.00000000000000E-02
      5.00000000000000E-02   5.00000000000000E-02   0.00000000000000E+00   0.00000000000000E+00   0.00000000000000E+00
      0.00000000000000E+00   0.00000000000000E+00  -5.37844690527563E-16   0.00000000000000E+00   0.00000000000000E+00
      0.00000000000000E+00   0.00000000000000E+00  -2.41670692280090E-07   5.96548247655188E-26  -2.41670692280090E-07
      9.18710808310217E-17   1.00000000000000E+00   1.00000000000000E+00   0.00000000000000E+00   0.00000000000000E+00
      2.41670692287020E-07   1.68730185261805E-19   2.41670692287188E-07   4.47251874396318E-16
      6.66666666666667E-02
      6.66666666666667E-02   6.66666666666667E-02   0.00000000000000E+00   0.00000000000000E+00   0.00000000000000E+00
      0.00000000000000E+00   0.00000000000000E+00  -5.25769707069585E-16   0.00000000000000E+00   0.00000000000000E+00
      0.00000000000000E+00   0.00000000000000E+00  -4.33831666432397E-07  -3.42679483022900E-26  -4.33831666432397E-07
      8.54606940919382E-17   1.00000000000000E+00   1.00000000000000E+00   0.00000000000000E+00   0.00000000000000E+00
      4.33831666431029E-07   3.20203382575713E-21   4.33831666431032E-07   4.41646070908578E-16
      8.33333333333333E-02
      8.33333333333333E-02   8.33333333333333E-02   0.00000000000000E+00   0.00000000000000E+00   0.00000000000000E+00
      0.00000000000000E+00   0.00000000000000E+00  -5.13625542347015E-16   0.00000000000000E+00   0.00000000000000E+00
      0.00000000000000E+00   0.00000000000000E+00  -7.76120947174851E-07  -1.84609826703979E-23  -7.76120947174851E-07
      7.90208087618546E-17   1.00000000000000E+00   1.00000000000000E+00   0.00000000000000E+00   0.00000000000000E+00
      7.76120995060336E-07   3.18713200726198E-20   7.76120995060368E-07   4.36032914311186E-16
      1.00000000000000E-01
      1.00000000000000E-01   1.00000000000000E-01   0.00000000000000E+00   0.00000000000000E+00   0.00000000000000E+00
      0.00000000000000E+00   0.00000000000000E+00  -5.01394919627882E-16   0.00000000000000E+00   0.00000000000000E+00
      0.00000000000000E+00   0.00000000000000E+00  -1.38227029244264E-06   4.56387941945932E-23  -1.38227029244264E-06
      7.25527312840056E-17   1.00000000000000E+00   1.00000000000000E+00   0.00000000000000E+00   0.00000000000000E+00
      1.38227035252000E-06   2.40202125166843E-22   1.38227035252000E-06   4.30412326981671E-16
      1.16666666666667E-01
      1.16666666666667E-01   1.16666666666667E-01   0.00000000000000E+00   0.00000000000000E+00   0.00000000000000E+00
      0.00000000000000E+00   0.00000000000000E+00  -4.89051576385737E-16   0.00000000000000E+00   0.00000000000000E+00
      0.00000000000000E+00   0.00000000000000E+00  -2.44706541705809E-06   2.34298035577709E-23  -2.44706541705809E-06
      6.60593539121806E-17   1.00000000000000E+00   1.00000000000000E+00   0.00000000000000E+00   0.00000000000000E+00
      2.44706549202627E-06   3.72523696540594E-21   2.44706549202627E-06   4.24784193252517E-16
      1.33333333333333E-01
      1.33333333333333E-01   1.33333333333333E-01   0.00000000000000E+00   0.00000000000000E+00   0.00000000000000E+00
      0.00000000000000E+00   0.00000000000000E+00  -4.76555626237972E-16   0.00000000000000E+00   0.00000000000000E+00
      0.00000000000000E+00   0.00000000000000E+00  -4.29651793288331E-06   1.54113529607918E-23  -4.29651793288331E-06
      5.95458523801289E-17   1.00000000000000E+00   1.00000000000000E+00   0.00000000000000E+00   0.00000000000000E+00
      4.29651811240385E-06   5.12541520942827E-21   4.29651811240386E-06   4.19148327198146E-16
      1.50000000000000E-01
      1.50000000000000E-01   1.50000000000000E-01   0.00000000000000E+00   0.00000000000000E+00   0.00000000000000E+00
      0.00000000000000E+00   0.00000000000000E+00  -4.63847538983033E-16   0.00000000000000E+00   0.00000000000000E+00
      0.00000000000000E+00   0.00000000000000E+00  -7.45802197506524E-06   1.97090431554581E-23  -7.45802197506524E-06
      5.30204761713268E-17   1.00000000000000E+00   1.00000000000000E+00   0.00000000000000E+00   0.00000000000000E+00
      7.45802284460989E-06   6.10160433116091E-21   7.45802284460989E-06   4.13504420170059E-16
      1.66666666666667E-01
      1.66666666666667E-01   1.66666666666667E-01   0.00000000000000E+00   0.00000000000000E+00   0.00000000000000E+00
      0.00000000000000E+00   0.00000000000000E+00  -4.50841770785920E-16   0.00000000000000E+00   0.00000000000000E+00
      0.00000000000000E+00   0.00000000000000E+00  -1.27434930840084E-05   3.99502371778459E-23  -1.27434930840084E-05
      4.64952139091687E-17   1.00000000000000E+00   1.00000000000000E+00   0.00000000000000E+00   0.00000000000000E+00
      1.27434971180997E-05  -2.49803679391023E-22   1.27434971180997E-05   4.07851968049654E-16
      1.83333333333333E-01
      1.83333333333333E-01   1.83333333333333E-01   0.00000000000000E+00   0.00000000000000E+00   0.00000000000000E+00
      0.00000000000000E+00   0.00000000000000E+00  -4.37422853060112E-16   0.00000000000000E+00   0.00000000000000E+00
      0.00000000000000E+00   0.00000000000000E+00  -2.13187281948520E-05   4.55471960034251E-23  -2.13187281948520E-05
      3.99859058367785E-17   1.00000000000000E+00   1.00000000000000E+00   0.00000000000000E+00   0.00000000000000E+00
      2.13187428413718E-05  -2.93972479505193E-20   2.13187428413718E-05   4.02190195299272E-16
      2.00000000000000E-01
      2.00000000000000E-01   2.00000000000000E-01   0.00000000000000E+00   0.00000000000000E+00   0.00000000000000E+00
      0.00000000000000E+00   0.00000000000000E+00  -4.23448179476236E-16   0.00000000000000E+00   0.00000000000000E+00
      0.00000000000000E+00   0.00000000000000E+00  -3.47119963603591E-05  -3.27799733486594E-23  -3.47119963603591E-05
      3.35112864137852E-17   1.00000000000000E+00   1.00000000000000E+00   0.00000000000000E+00   0.00000000000000E+00
      3.47120364806690E-05  -4.12907573624969E-20   3.47120364806690E-05   3.96517999647428E-16
      2.16666666666667E-01
      2.16666666666667E-01   2.16666666666667E-01   0.00000000000000E+00   0.00000000000000E+00   0.00000000000000E+00
      0.00000000000000E+00   0.00000000000000E+00  -4.08758834287371E-16   0.00000000000000E+00   0.00000000000000E+00
      0.00000000000000E+00   0.00000000000000E+00  -5.47401688933907E-05   3.85990081296262E-23  -5.47401688933907E-05
      2.70908925803906E-17   1.00000000000000E+00   1.00000000000000E+00   0.00000000000000E+00   0.00000000000000E+00
      5.47402508152872E-05  -6.59856070962020E-21   5.47402508152872E-05   3.90833881997166E-16
      2.33333333333333E-01
      2.33333333333333E-01   2.33333333333333E-01   0.00000000000000E+00   0.00000000000000E+00   0.00000000000000E+00
      0.00000000000000E+00   0.00000000000000E+00  -3.93177909250294E-16   0.00000000000000E+00   0.00000000000000E+00
      0.00000000000000E+00   0.00000000000000E+00  -8.35997202318933E-05   3.42743264329665E-23  -8.35997202318933E-05
      2.07437850694285E-17   1.00000000000000E+00   1.00000000000000E+00   0.00000000000000E+00   0.00000000000000E+00
      8.35998580078769E-05  -1.50401937197214E-22   8.35998580078769E-05   3.85135674371334E-16
      2.50000000000000E-01
      2.50000000000000E-01   2.50000000000000E-01   0.00000000000000E+00   0.00000000000000E+00   0.00000000000000E+00
      0.00000000000000E+00   0.00000000000000E+00  -3.76862597981644E-16   0.00000000000000E+00   0.00000000000000E+00
      0.00000000000000E+00   0.00000000000000E+00  -1.19422864442346E-04   7.85818480057538E-23  -1.19422864442346E-04
      1.44613279911198E-17   1.00000000000000E+00   1.00000000000000E+00   0.00000000000000E+00   0.00000000000000E+00
      1.19423044022138E-04  -3.54554843314632E-22   1.19423044022138E-04   3.79424087146489E-16
      2.66666666666667E-01
      2.66666666666667E-01   2.66666666666667E-01   0.00000000000000E+00   0.00000000000000E+00   0.00000000000000E+00
      0.00000000000000E+00   0.00000000000000E+00  -3.59754686693483E-16   0.00000000000000E+00   0.00000000000000E+00
      0.00000000000000E+00   0.00000000000000E+00  -1.62747656238668E-04   2.81490440402400E-23  -1.62747656238668E-04
      8.24763422768000E-18   1.00000000000000E+00   1.00000000000000E+00   0.00000000000000E+00   0.00000000000000E+00
      1.62747702844020E-04   4.10403961991106E-24   1.62747702844020E-04   3.73698246496745E-16
      2.83333333333333E-01
      2.83333333333333E-01   2.83333333333333E-01   0.00000000000000E+00   0.00000000000000E+00   0.00000000000000E+00
      0.00000000000000E+00   0.00000000000000E+00  -3.41777740110356E-16   0.00000000000000E+00   0.00000000000000E+00
      0.00000000000000E+00   0.00000000000000E+00  -2.14459239836661E-04   4.92362603920029E-24  -2.14459239836661E-04
      2.11031950818184E-18   1.00000000000000E+00   1.00000000000000E+00   0.00000000000000E+00   0.00000000000000E+00
      2.14459310176316E-04   3.31966346563196E-24   2.14459310176316E-04   3.67956669477068E-16
      3.00000000000000E-01
      3.00000000000000E-01   3.00000000000000E-01   0.00000000000000E+00   0.00000000000000E+00   0.00000000000000E+00
      0.00000000000000E+00   0.00000000000000E+00  -3.22971280108322E-16   0.00000000000000E+00   0.00000000000000E+00
      0.00000000000000E+00   0.00000000000000E+00  -2.74174265774888E-04  -5.97111526825544E-25  -2.74174265774888E-04
     -3.95638023822019E-18   1.00000000000000E+00   1.00000000000000E+00   0.00000000000000E+00   0.00000000000000E+00
      2.74174303523950E-04   1.04195308820278E-24   2.74174303523950E-04   3.62198752554723E-16
      3.16666666666667E-01
      3.16666666666667E-01   3.16666666666667E-01   0.00000000000000E+00   0.00000000000000E+00   0.00000000000000E+00
      0.00000000000000E+00   0.00000000000000E+00  -3.03387899224080E-16   0.00000000000000E+00   0.00000000000000E+00
      0.00000000000000E+00   0.00000000000000E+00  -3.41324722508441E-04  -1.05476547260880E-24  -3.41324722508441E-04
     -9.95894822291128E-18   1.00000000000000E+00   1.00000000000000E+00   0.00000000000000E+00   0.00000000000000E+00
      3.41324744341711E-04   3.03240891197358E-25   3.41324744341711E-04   3.56424038038908E-16
      3.33333333333333E-01
      3.33333333333333E-01   3.33333333333333E-01   0.00000000000000E+00   0.00000000000000E+00   0.00000000000000E+00
      0.00000000000000E+00   0.00000000000000E+00  -2.83084567376901E-16   0.00000000000000E+00   0.00000000000000E+00
      0.00000000000000E+00   0.00000000000000E+00  -4.15283366456538E-04  -1.64507211297496E-24  -4.15283366456538E-04
     -1.59039902326893E-17   1.00000000000000E+00   1.00000000000000E+00   0.00000000000000E+00   0.00000000000000E+00
      4.15283379985968E-04   1.04929066619648E-25   4.15283379985968E-04   3.50632110434408E-16
      3.50000000000000E-01
      3.50000000000000E-01   3.50000000000000E-01   0.00000000000000E+00   0.00000000000000E+00   0.00000000000000E+00
      0.00000000000000E+00   0.00000000000000E+00  -2.62116825314895E-16   0.00000000000000E+00   0.00000000000000E+00
      0.00000000000000E+00   0.00000000000000E+00  -4.95422816333217E-04  -4.79982285396961E-24  -4.95422816333217E-04
     -2.17976294301073E-17   1.00000000000000E+00   1.00000000000000E+00   0.00000000000000E+00   0.00000000000000E+00
      4.95422825276875E-04   1.78526988508277E-26   4.95422825276875E-04   3.44822597769425E-16
      3.66666666666667E-01
      3.66666666666667E-01   3.66666666666667E-01   0.00000000000000E+00   0.00000000000000E+00   0.00000000000000E+00
      0.00000000000000E+00   0.00000000000000E+00  -2.40536747627840E-16   0.00000000000000E+00   0.00000000000000E+00
      0.00000000000000E+00   0.00000000000000E+00  -5.81152156214256E-04   7.02334930317167E-25  -5.81152156214256E-04
     -2.76454671283980E-17   1.00000000000000E+00   1.00000000000000E+00   0.00000000000000E+00   0.00000000000000E+00
      5.81152162456111E-04  -4.26088147312509E-26   5.81152162456111E-04   3.38995138684576E-16
      3.83333333333333E-01
      3.83333333333333E-01   3.83333333333333E-01   0.00000000000000E+00   0.00000000000000E+00   0.00000000000000E+00
      0.00000000000000E+00   0.00000000000000E+00  -2.18392777894789E-16   0.00000000000000E+00   0.00000000000000E+00
      0.00000000000000E+00   0.00000000000000E+00  -6.71924055719655E-04   1.38148129475801E-25  -6.71924055719655E-04
     -3.34524689925037E-17   1.00000000000000E+00   1.00000000000000E+00   0.00000000000000E+00   0.00000000000000E+00
      6.71924060274428E-04  -7.28163667276622E-26   6.71924060274428E-04   3.33149393498130E-16
      4.00000000000000E-01
      4.00000000000000E-01   4.00000000000000E-01   0.00000000000000E+00   0.00000000000000E+00   0.00000000000000E+00
      0.00000000000000E+00   0.00000000000000E+00  -1.95728923586429E-16   0.00000000000000E+00   0.00000000000000E+00
      0.00000000000000E+00   0.00000000000000E+00  -7.67237017157010E-04   5.82649666167776E-26  -7.67237017157010E-04
     -3.92231109704301E-17   1.00000000000000E+00   1.00000000000000E+00   0.00000000000000E+00   0.00000000000000E+00
      7.67237020575892E-04  -6.47641702081807E-26   7.67237020575892E-04   3.27285089935068E-16
      4.16666666666667E-01
      4.16666666666667E-01   4.16666666666667E-01   0.00000000000000E+00   0.00000000000000E+00   0.00000000000000E+00
      0.00000000000000E+00   0.00000000000000E+00  -1.72586815146547E-16   0.00000000000000E+00   0.00000000000000E+00
      0.00000000000000E+00   0.00000000000000E+00  -8.66633300353016E-04   7.64514962821285E-26  -8.66633300353016E-04
     -4.49613857801524E-17   1.00000000000000E+00   1.00000000000000E+00   0.00000000000000E+00   0.00000000000000E+00
      8.66633302990240E-04  -3.73091864887862E-26   8.66633302990240E-04   3.21401935218928E-16
      4.33333333333333E-01
      4.33333333333333E-01   4.33333333333333E-01   0.00000000000000E+00   0.00000000000000E+00   0.00000000000000E+00
      0.00000000000000E+00   0.00000000000000E+00  -1.49003629753612E-16   0.00000000000000E+00   0.00000000000000E+00
      0.00000000000000E+00   0.00000000000000E+00  -9.69689914488103E-04   1.15722105016963E-25  -9.69689914488103E-04
     -5.06708804908687E-17   1.00000000000000E+00   1.00000000000000E+00   0.00000000000000E+00   0.00000000000000E+00
      9.69689916553625E-04  -1.61231497046030E-26   9.69689916553625E-04   3.15499823924971E-16
      4.50000000000000E-01
      4.50000000000000E-01   4.50000000000000E-01   0.00000000000000E+00   0.00000000000000E+00   0.00000000000000E+00
      0.00000000000000E+00   0.00000000000000E+00  -1.25014645173611E-16   0.00000000000000E+00   0.00000000000000E+00
      0.00000000000000E+00   0.00000000000000E+00  -1.07602008735620E-03   9.35356325367031E-26  -1.07602008735620E-03
     -5.63548518081072E-17   1.00000000000000E+00   1.00000000000000E+00   0.00000000000000E+00   0.00000000000000E+00
      1.07602008899535E-03  -7.38519779674368E-27   1.07602008899535E-03   3.09578657310634E-16
      4.66666666666667E-01
      4.66666666666667E-01   4.66666666666667E-01   0.00000000000000E+00   0.00000000000000E+00   0.00000000000000E+00
      0.00000000000000E+00   0.00000000000000E+00  -1.00652520970661E-16   0.00000000000000E+00   0.00000000000000E+00
      0.00000000000000E+00   0.00000000000000E+00  -1.18526740247542E-03  -1.64184371705375E-26  -1.18526740247542E-03
     -6.20162563640890E-17   1.00000000000000E+00   1.00000000000000E+00   0.00000000000000E+00   0.00000000000000E+00
      1.18526740380430E-03  -3.61925784098095E-27   1.18526740380430E-03   3.03638427745580E-16
      4.83333333333333E-01
      4.83333333333333E-01   4.83333333333333E-01   0.00000000000000E+00   0.00000000000000E+00   0.00000000000000E+00
      0.00000000000000E+00   0.00000000000000E+00  -7.59474782866850E-17   0.00000000000000E+00   0.00000000000000E+00
      0.00000000000000E+00   0.00000000000000E+00  -1.29710219538583E-03   1.68035992285444E-25  -1.29710219538583E-03
     -6.76577668232739E-17   1.00000000000000E+00   1.00000000000000E+00   0.00000000000000E+00   0.00000000000000E+00
      1.29710219647224E-03  -1.72253194728807E-27   1.29710219647224E-03   2.97679248077730E-16
      5.00000000000000E-01
      5.00000000000000E-01   5.00000000000000E-01   0.00000000000000E+00   0.00000000000000E+00   0.00000000000000E+00
      0.00000000000000E+00   0.00000000000000E+00  -5.09273087492801E-17   0.00000000000000E+00   0.00000000000000E+00
      0.00000000000000E+00   0.00000000000000E+00  -1.41122196898867E-03   3.52988463484859E-26  -1.41122196898867E-03
     -7.32818517899207E-17   1.00000000000000E+00   1.00000000000000E+00   0.00000000000000E+00   0.00000000000000E+00
      1.41122196998044E-03  -3.47812643762014E-28   1.41122196998044E-03   2.91701333375972E-16
      5.16666666666667E-01
      5.16666666666667E-01   5.16666666666667E-01   0.00000000000000E+00   0.00000000000000E+00   0.00000000000000E+00
      0.00000000000000E+00   0.00000000000000E+00  -2.56178832896456E-17   0.00000000000000E+00   0.00000000000000E+00
      0.00000000000000E+00   0.00000000000000E+00  -1.52734820876879E-03   5.81101510415927E-27  -1.52734820876879E-03
     -7.88907488396717E-17   1.00000000000000E+00   1.00000000000000E+00   0.00000000000000E+00   0.00000000000000E+00
      1.52734820950905E-03  -4.77255268221767E-28   1.52734820950905E-03   2.85704971539999E-16
      5.33333333333333E-01
      5.33333333333333E-01   5.33333333333333E-01   0.00000000000000E+00   0.00000000000000E+00   0.00000000000000E+00
      0.00000000000000E+00   0.00000000000000E+00  -4.30276418884319E-20   0.00000000000000E+00   0.00000000000000E+00
      0.00000000000000E+00   0.00000000000000E+00  -1.64522519265738E-03   3.65320061512203E-27  -1.64522519265738E-03
     -8.44864953476162E-17   1.00000000000000E+00   1.00000000000000E+00   0.00000000000000E+00   0.00000000000000E+00
      1.64522519327514E-03  -3.62944751672617E-28   1.64522519327514E-03   2.79690530600716E-16
      5.50000000000000E-01
      5.50000000000000E-01   5.50000000000000E-01   0.00000000000000E+00   0.00000000000000E+00   0.00000000000000E+00
      0.00000000000000E+00   0.00000000000000E+00   2.57755896020855E-17   0.00000000000000E+00   0.00000000000000E+00
      0.00000000000000E+00   0.00000000000000E+00  -1.76461830839609E-03   1.24123677026863E-27  -1.76461830839609E-03
     -9.00709419480363E-17   1.00000000000000E+00   1.00000000000000E+00   0.00000000000000E+00   0.00000000000000E+00
      1.76461830891401E-03  -2.85769095454967E-28   1.76461830891401E-03   2.73658474849987E-16
      5.66666666666667E-01
      5.66666666666667E-01   5.66666666666667E-01   0.00000000000000E+00   0.00000000000000E+00   0.00000000000000E+00
      0.00000000000000E+00   0.00000000000000E+00   5.18180064257210E-17   0.00000000000000E+00   0.00000000000000E+00
      0.00000000000000E+00   0.00000000000000E+00  -1.88531350725026E-03   2.22239434054171E-28  -1.88531350725026E-03
     -9.56457646334181E-17   1.00000000000000E+00   1.00000000000000E+00   0.00000000000000E+00   0.00000000000000E+00
      1.88531350768395E-03  -2.13843689674635E-28   1.88531350768395E-03   2.67609326472246E-16
      5.83333333333333E-01
      5.83333333333333E-01   5.83333333333333E-01   0.00000000000000E+00   0.00000000000000E+00   0.00000000000000E+00
      0.00000000000000E+00   0.00000000000000E+00   7.80661943431410E-17   0.00000000000000E+00   0.00000000000000E+00
      0.00000000000000E+00   0.00000000000000E+00  -2.00711561564708E-03  -9.21411131483921E-29  -2.00711561564708E-03
     -1.01212479464739E-16   1.00000000000000E+00   1.00000000000000E+00   0.00000000000000E+00   0.00000000000000E+00
      2.00711561603065E-03  -1.48132176679742E-28   2.00711561603065E-03   2.61543704135537E-16
      6.00000000000000E-01
      6.00000000000000E-01   6.00000000000000E-01   0.00000000000000E+00   0.00000000000000E+00   0.00000000000000E+00
      0.00000000000000E+00   0.00000000000000E+00   1.04503869820844E-16   0.00000000000000E+00   0.00000000000000E+00
      0.00000000000000E+00   0.00000000000000E+00  -2.12984611140558E-03  -2.78312097317702E-28  -2.12984611140558E-03
     -1.06772433546170E-16   1.00000000000000E+00   1.00000000000000E+00   0.00000000000000E+00   0.00000000000000E+00
      2.12984611172339E-03  -1.04671070978078E-28   2.12984611172339E-03   2.55462302403965E-16
      6.16666666666667E-01
      6.16666666666667E-01   6.16666666666667E-01   0.00000000000000E+00   0.00000000000000E+00   0.00000000000000E+00
      0.00000000000000E+00   0.00000000000000E+00   1.31115011725584E-16   0.00000000000000E+00   0.00000000000000E+00
      0.00000000000000E+00   0.00000000000000E+00  -2.25334558901855E-03  -3.60600402616894E-28  -2.25334558901855E-03
     -1.12326844767841E-16   1.00000000000000E+00   1.00000000000000E+00   0.00000000000000E+00   0.00000000000000E+00
      2.25334558928434E-03  -6.18804636533471E-29   2.25334558928434E-03   2.49365547277841E-16
      6.33333333333334E-01
      6.33333333333334E-01   6.33333333333334E-01   0.00000000000000E+00   0.00000000000000E+00   0.00000000000000E+00
      0.00000000000000E+00   0.00000000000000E+00   1.57886944068339E-16   0.00000000000000E+00   0.00000000000000E+00
      0.00000000000000E+00   0.00000000000000E+00  -2.37746782255588E-03  -2.18647511933968E-28  -2.37746782255588E-03
     -1.17876814838134E-16   1.00000000000000E+00   1.00000000000000E+00   0.00000000000000E+00   0.00000000000000E+00
      2.37746782278115E-03  -4.03062317804985E-29   2.37746782278115E-03   2.43254256716829E-16
      6.50000000000000E-01
      6.50000000000000E-01   6.50000000000000E-01   0.00000000000000E+00   0.00000000000000E+00   0.00000000000000E+00
      0.00000000000000E+00   0.00000000000000E+00   1.84807825570348E-16   0.00000000000000E+00   0.00000000000000E+00
      0.00000000000000E+00   0.00000000000000E+00  -2.50208028480265E-03  -1.88318052832511E-28  -2.50208028480265E-03
     -1.23423298196224E-16   1.00000000000000E+00   1.00000000000000E+00   0.00000000000000E+00   0.00000000000000E+00
      2.50208028500117E-03  -2.88738518791861E-29   2.50208028500117E-03   2.37129359727382E-16
      6.66666666666667E-01
      6.66666666666667E-01   6.66666666666667E-01   0.00000000000000E+00   0.00000000000000E+00   0.00000000000000E+00
      0.00000000000000E+00   0.00000000000000E+00   2.11865528433178E-16   0.00000000000000E+00   0.00000000000000E+00
      0.00000000000000E+00   0.00000000000000E+00  -2.62706494926097E-03  -6.74223314361387E-29  -2.62706494926097E-03
     -1.28967136273395E-16   1.00000000000000E+00   1.00000000000000E+00   0.00000000000000E+00   0.00000000000000E+00
      2.62706494942219E-03  -1.71088003256201E-29   2.62706494942219E-03   2.30991190395429E-16
      6.83333333333334E-01
      6.83333333333334E-01   6.83333333333334E-01   0.00000000000000E+00   0.00000000000000E+00   0.00000000000000E+00
      0.00000000000000E+00   0.00000000000000E+00   2.39050919762474E-16   0.00000000000000E+00   0.00000000000000E+00
      0.00000000000000E+00   0.00000000000000E+00  -2.75231562853938E-03  -2.39186281421545E-29  -2.75231562853938E-03
     -1.34509107794382E-16   1.00000000000000E+00   1.00000000000000E+00   0.00000000000000E+00   0.00000000000000E+00
      2.75231562867627E-03  -9.78739851712076E-30   2.75231562867627E-03   2.24840684263287E-16
      7.00000000000001E-01
      7.00000000000001E-01   7.00000000000001E-01   0.00000000000000E+00   0.00000000000000E+00   0.00000000000000E+00
      0.00000000000000E+00   0.00000000000000E+00   2.66355841144097E-16   0.00000000000000E+00   0.00000000000000E+00
      0.00000000000000E+00   0.00000000000000E+00  -2.87773512344631E-03  -2.80949465148806E-29  -2.87773512344631E-03
     -1.40049868849300E-16   1.00000000000000E+00   1.00000000000000E+00   0.00000000000000E+00   0.00000000000000E+00
      2.87773512356643E-03  -6.23155309049138E-30   2.87773512356643E-03   2.18678853460572E-16
      7.16666666666667E-01
      7.16666666666667E-01   7.16666666666667E-01   0.00000000000000E+00   0.00000000000000E+00   0.00000000000000E+00
      0.00000000000000E+00   0.00000000000000E+00   2.93770892763161E-16   0.00000000000000E+00   0.00000000000000E+00
      0.00000000000000E+00   0.00000000000000E+00  -3.00323981367820E-03   1.10227355830473E-29  -3.00323981367820E-03
     -1.45590005649054E-16   1.00000000000000E+00   1.00000000000000E+00   0.00000000000000E+00   0.00000000000000E+00
      3.00323981378058E-03  -2.60215107246334E-30   3.00323981378058E-03   2.12505907001226E-16
      7.33333333333334E-01
      7.33333333333334E-01   7.33333333333334E-01   0.00000000000000E+00   0.00000000000000E+00   0.00000000000000E+00
      0.00000000000000E+00   0.00000000000000E+00   3.21290699815028E-16   0.00000000000000E+00   0.00000000000000E+00
      0.00000000000000E+00   0.00000000000000E+00  -3.12875001023528E-03   1.16792974482105E-29  -3.12875001023528E-03
     -1.51130017817657E-16   1.00000000000000E+00   1.00000000000000E+00   0.00000000000000E+00   0.00000000000000E+00
      3.12875001032044E-03  -4.31791080192792E-30   3.12875001032044E-03   2.06323392735970E-16
      7.50000000000001E-01
      7.50000000000001E-01   7.50000000000001E-01   0.00000000000000E+00   0.00000000000000E+00   0.00000000000000E+00
      0.00000000000000E+00   0.00000000000000E+00   3.48908537436482E-16   0.00000000000000E+00   0.00000000000000E+00
      0.00000000000000E+00   0.00000000000000E+00  -3.25419747475691E-03   5.40243465267064E-29  -3.25419747475691E-03
     -1.56670346111178E-16   1.00000000000000E+00   1.00000000000000E+00   0.00000000000000E+00   0.00000000000000E+00
      3.25419747481983E-03  -9.69412674925480E-30   3.25419747481983E-03   2.00132074715947E-16
      7.66666666666667E-01
      7.66666666666667E-01   7.66666666666667E-01   0.00000000000000E+00   0.00000000000000E+00   0.00000000000000E+00
      0.00000000000000E+00   0.00000000000000E+00   3.76621736605975E-16   0.00000000000000E+00   0.00000000000000E+00
      0.00000000000000E+00   0.00000000000000E+00  -3.37951734669507E-03   4.42731404895291E-26  -3.37951734669507E-03
     -1.62211345500881E-16   1.00000000000000E+00   1.00000000000000E+00   0.00000000000000E+00   0.00000000000000E+00
      3.37951172813568E-03  -1.64800752750280E-24   3.37951172813568E-03   1.93933144468300E-16
      7.83333333333334E-01
      7.83333333333334E-01   7.83333333333334E-01   0.00000000000000E+00   0.00000000000000E+00   0.00000000000000E+00
      0.00000000000000E+00   0.00000000000000E+00   4.04423653004420E-16   0.00000000000000E+00   0.00000000000000E+00
      0.00000000000000E+00   0.00000000000000E+00  -3.50465373916026E-03   4.63419678987332E-26  -3.50465373916026E-03
     -1.67753346822174E-16   1.00000000000000E+00   1.00000000000000E+00   0.00000000000000E+00   0.00000000000000E+00
      3.50465340111890E-03  -8.48909645929838E-25   3.50465340111890E-03   1.87727041926381E-16
      8.00000000000001E-01
      8.00000000000001E-01   8.00000000000001E-01   0.00000000000000E+00   0.00000000000000E+00   0.00000000000000E+00
      0.00000000000000E+00   0.00000000000000E+00   4.32309259959480E-16   0.00000000000000E+00   0.00000000000000E+00