DF-ISE text

Info {
  version   = 1.0
  type      = xyplot
  datasets  = [
    "time"
    "gate OuterVoltage" "gate InnerVoltage" "gate QuasiFermiPotential" "gate DisplacementCurrent" "gate eCurrent"
    "gate hCurrent" "gate TotalCurrent" "gate Charge" "source OuterVoltage" "source InnerVoltage"
    "source QuasiFermiPotential" "source DisplacementCurrent" "source eCurrent" "source hCurrent" "source TotalCurrent"
    "source Charge" "drain OuterVoltage" "drain InnerVoltage" "drain QuasiFermiPotential" "drain DisplacementCurrent"
    "drain eCurrent" "drain hCurrent" "drain TotalCurrent" "drain Charge" ]
  functions = [
    Time
    OuterVoltage InnerVoltage QuasiFermiPotential DisplacementCurrent eCurrent
    hCurrent TotalCurrent Charge OuterVoltage InnerVoltage
    QuasiFermiPotential DisplacementCurrent eCurrent hCurrent TotalCurrent
    Charge OuterVoltage InnerVoltage QuasiFermiPotential DisplacementCurrent
    eCurrent hCurrent TotalCurrent Charge ]
}

Data {
      0.00000000000000E+00
      0.00000000000000E+00   0.00000000000000E+00   0.00000000000000E+00   0.00000000000000E+00   0.00000000000000E+00
      0.00000000000000E+00   0.00000000000000E+00  -7.48412067970925E-16   0.00000000000000E+00   0.00000000000000E+00
      0.00000000000000E+00   0.00000000000000E+00  -2.70827441290212E-09  -3.34079873776211E-26  -2.70827441290212E-09
      1.12041595302952E-16   1.50000000000000E+00   1.50000000000000E+00   0.00000000000000E+00   0.00000000000000E+00
      2.70827441292688E-09  -1.73732809252199E-24   2.70827441292687E-09   6.64088826515246E-16
      1.66666666666667E-02
      2.50000000000000E-02   2.50000000000000E-02   0.00000000000000E+00   0.00000000000000E+00   0.00000000000000E+00
      0.00000000000000E+00   0.00000000000000E+00  -7.29733316637154E-16   0.00000000000000E+00   0.00000000000000E+00
      0.00000000000000E+00   0.00000000000000E+00  -7.08646729271772E-09   1.37221613712721E-23  -7.08646729271771E-09
      1.03003826366632E-16   1.50000000000000E+00   1.50000000000000E+00   0.00000000000000E+00   0.00000000000000E+00
      7.08646733102707E-09   3.61573152880708E-22   7.08646733102743E-09   6.54884058677005E-16
      3.33333333333333E-02
      5.00000000000000E-02   5.00000000000000E-02   0.00000000000000E+00   0.00000000000000E+00   0.00000000000000E+00
      0.00000000000000E+00   0.00000000000000E+00  -7.10874197217166E-16   0.00000000000000E+00   0.00000000000000E+00
      0.00000000000000E+00   0.00000000000000E+00  -1.85252930509244E-08   4.15203577349577E-22  -1.85252930509239E-08
      9.40599646635101E-17   1.50000000000000E+00   1.50000000000000E+00   0.00000000000000E+00   0.00000000000000E+00
      1.85252949126152E-08   3.28132371079846E-22   1.85252949126155E-08   6.45678911579246E-16
      5.00000000000000E-02
      7.50000000000000E-02   7.50000000000000E-02   0.00000000000000E+00   0.00000000000000E+00   0.00000000000000E+00
      0.00000000000000E+00   0.00000000000000E+00  -6.91697888841682E-16   0.00000000000000E+00   0.00000000000000E+00
      0.00000000000000E+00   0.00000000000000E+00  -4.83390931793848E-08   2.08122560394212E-22  -4.83390931793845E-08
      8.52514678250381E-17   1.50000000000000E+00   1.50000000000000E+00   0.00000000000000E+00   0.00000000000000E+00
      4.83390931970889E-08  -5.52668051841577E-23   4.83390931970888E-08   6.36472958482552E-16
      6.66666666666667E-02
      1.00000000000000E-01   1.00000000000000E-01   0.00000000000000E+00   0.00000000000000E+00   0.00000000000000E+00
      0.00000000000000E+00   0.00000000000000E+00  -6.71944208926348E-16   0.00000000000000E+00   0.00000000000000E+00
      0.00000000000000E+00   0.00000000000000E+00  -1.25295477600581E-07   9.77280523094605E-19  -1.25295477599604E-07
      7.66266711890804E-17   1.50000000000000E+00   1.50000000000000E+00   0.00000000000000E+00   0.00000000000000E+00
      1.25573424451814E-07   3.21041798704450E-21   1.25573424451818E-07   6.27265152073669E-16
      8.33333333333333E-02
      1.25000000000000E-01   1.25000000000000E-01   0.00000000000000E+00   0.00000000000000E+00   0.00000000000000E+00
      0.00000000000000E+00   0.00000000000000E+00  -6.51085018874372E-16   0.00000000000000E+00   0.00000000000000E+00
      0.00000000000000E+00   0.00000000000000E+00  -3.22553048298912E-07   4.50493939364078E-20  -3.22553048298866E-07
      6.82339817496647E-17   1.50000000000000E+00   1.50000000000000E+00   0.00000000000000E+00   0.00000000000000E+00
      3.23263779296884E-07   9.01966220724895E-22   3.23263779296885E-07   6.18052988161511E-16
      1.00000000000000E-01
      1.50000000000000E-01   1.50000000000000E-01   0.00000000000000E+00   0.00000000000000E+00   0.00000000000000E+00
      0.00000000000000E+00   0.00000000000000E+00  -6.28037566878883E-16   0.00000000000000E+00   0.00000000000000E+00
      0.00000000000000E+00   0.00000000000000E+00  -8.14058764261968E-07   3.76214017478851E-22  -8.14058764261968E-07
      6.01132312643966E-17   1.50000000000000E+00   1.50000000000000E+00   0.00000000000000E+00   0.00000000000000E+00
      8.15877426356248E-07   3.21772424469419E-22   8.15877426356248E-07   6.08830774880926E-16
      1.16666666666667E-01
      1.75000000000000E-01   1.75000000000000E-01   0.00000000000000E+00   0.00000000000000E+00   0.00000000000000E+00
      0.00000000000000E+00   0.00000000000000E+00  -6.00800227378445E-16   0.00000000000000E+00   0.00000000000000E+00
      0.00000000000000E+00   0.00000000000000E+00  -1.97633706426177E-06   1.15199132041879E-26  -1.97633706426177E-06
      5.22881467987680E-17   1.50000000000000E+00   1.50000000000000E+00   0.00000000000000E+00   0.00000000000000E+00
      1.97633707647815E-06  -5.21045403168115E-24   1.97633707647815E-06   5.99586912874506E-16
      1.33333333333333E-01
      2.00000000000000E-01   2.00000000000000E-01   0.00000000000000E+00   0.00000000000000E+00   0.00000000000000E+00
      0.00000000000000E+00   0.00000000000000E+00  -5.66583653848856E-16   0.00000000000000E+00   0.00000000000000E+00
      0.00000000000000E+00   0.00000000000000E+00  -4.44560355127036E-06  -4.37539723843265E-26  -4.44560355127036E-06
      4.47607289245817E-17   1.50000000000000E+00   1.50000000000000E+00   0.00000000000000E+00   0.00000000000000E+00
      4.44560356263456E-06  -6.60598957595845E-24   4.44560356263456E-06   5.90302380819303E-16
      1.50000000000000E-01
      2.25000000000000E-01   2.25000000000000E-01   0.00000000000000E+00   0.00000000000000E+00   0.00000000000000E+00
      0.00000000000000E+00   0.00000000000000E+00  -5.22961666860187E-16   0.00000000000000E+00   0.00000000000000E+00
      0.00000000000000E+00   0.00000000000000E+00  -9.03863200694136E-06  -6.75524368858780E-26  -9.03863200694136E-06
      3.75096162708469E-17   1.50000000000000E+00   1.50000000000000E+00   0.00000000000000E+00   0.00000000000000E+00
      9.03863195238613E-06  -3.78949463250389E-24   9.03863195238613E-06   5.80954077410025E-16
      1.66666666666667E-01
      2.50000000000000E-01   2.50000000000000E-01   0.00000000000000E+00   0.00000000000000E+00   0.00000000000000E+00
      0.00000000000000E+00   0.00000000000000E+00  -4.69118273869844E-16   0.00000000000000E+00   0.00000000000000E+00
      0.00000000000000E+00   0.00000000000000E+00  -1.64484189509772E-05   6.07100396003737E-26  -1.64484189509772E-05
      3.04997116444314E-17   1.50000000000000E+00   1.50000000000000E+00   0.00000000000000E+00   0.00000000000000E+00
      1.64484188905303E-05  -8.44497204766973E-25   1.64484188905303E-05   5.71523394093246E-16
      1.83333333333333E-01
      2.75000000000000E-01   2.75000000000000E-01   0.00000000000000E+00   0.00000000000000E+00   0.00000000000000E+00
      0.00000000000000E+00   0.00000000000000E+00  -4.05760453519341E-16   0.00000000000000E+00   0.00000000000000E+00
      0.00000000000000E+00   0.00000000000000E+00  -2.70765885042812E-05  -1.80704573990042E-22  -2.70765885042812E-05
      2.36949521084030E-17   1.50000000000000E+00   1.50000000000000E+00   0.00000000000000E+00   0.00000000000000E+00
      2.70777792553519E-05  -5.74456697901238E-25   2.70777792553519E-05   5.61999961566177E-16
      2.00000000000000E-01
      3.00000000000000E-01   3.00000000000000E-01   0.00000000000000E+00   0.00000000000000E+00   0.00000000000000E+00
      0.00000000000000E+00   0.00000000000000E+00  -3.34166867547995E-16   0.00000000000000E+00   0.00000000000000E+00
      0.00000000000000E+00   0.00000000000000E+00  -4.10238489399629E-05  -1.78423100365732E-22  -4.10238489399629E-05
      1.70643922013549E-17   1.50000000000000E+00   1.50000000000000E+00   0.00000000000000E+00   0.00000000000000E+00
      4.10246105957819E-05   1.62743914732370E-26   4.10246105957819E-05   5.52381467117181E-16
      2.16666666666667E-01
      3.25000000000000E-01   3.25000000000000E-01   0.00000000000000E+00   0.00000000000000E+00   0.00000000000000E+00
      0.00000000000000E+00   0.00000000000000E+00  -2.55557412268267E-16   0.00000000000000E+00   0.00000000000000E+00
      0.00000000000000E+00   0.00000000000000E+00  -5.82178849813033E-05  -1.36724881177507E-23  -5.82178849813033E-05
      1.05834577629564E-17   1.50000000000000E+00   1.50000000000000E+00   0.00000000000000E+00   0.00000000000000E+00
      5.82184214088532E-05  -2.41893281406240E-27   5.82184214088532E-05   5.42669524607787E-16
      2.33333333333333E-01
      3.50000000000000E-01   3.50000000000000E-01   0.00000000000000E+00   0.00000000000000E+00   0.00000000000000E+00
      0.00000000000000E+00   0.00000000000000E+00  -1.70970073277014E-16   0.00000000000000E+00   0.00000000000000E+00
      0.00000000000000E+00   0.00000000000000E+00  -7.85014276826242E-05  -3.10983592763091E-24  -7.85014276826242E-05
      4.23259804831609E-18   1.50000000000000E+00   1.50000000000000E+00   0.00000000000000E+00   0.00000000000000E+00
      7.85018336756084E-05   2.41499523720674E-26   7.85018336756084E-05   5.32867444499110E-16
      2.50000000000000E-01
      3.75000000000000E-01   3.75000000000000E-01   0.00000000000000E+00   0.00000000000000E+00   0.00000000000000E+00
      0.00000000000000E+00   0.00000000000000E+00  -8.08658349752141E-17   0.00000000000000E+00   0.00000000000000E+00
      0.00000000000000E+00   0.00000000000000E+00  -1.01598401278590E-04   5.36690232779246E-25  -1.01598401278590E-04
     -2.00402331298337E-18   1.50000000000000E+00   1.50000000000000E+00   0.00000000000000E+00   0.00000000000000E+00
      1.01598720038962E-04  -1.38878616458074E-27   1.01598720038962E-04   5.22983686483092E-16
      2.66666666666667E-01
      4.00000000000000E-01   4.00000000000000E-01   0.00000000000000E+00   0.00000000000000E+00   0.00000000000000E+00
      0.00000000000000E+00   0.00000000000000E+00   1.39120236192139E-17   0.00000000000000E+00   0.00000000000000E+00
      0.00000000000000E+00   0.00000000000000E+00  -1.27341842503223E-04   3.53758571453410E-27  -1.27341842503223E-04
     -8.13980579950106E-18   1.50000000000000E+00   1.50000000000000E+00   0.00000000000000E+00   0.00000000000000E+00
      1.27342098881552E-04   4.77123621610030E-28   1.27342098881552E-04   5.13020318192809E-16
      2.83333333333333E-01
      4.25000000000000E-01   4.25000000000000E-01   0.00000000000000E+00   0.00000000000000E+00   0.00000000000000E+00
      0.00000000000000E+00   0.00000000000000E+00   1.12859908533066E-16   0.00000000000000E+00   0.00000000000000E+00
      0.00000000000000E+00   0.00000000000000E+00  -1.55526820400596E-04  -3.14292665141044E-25  -1.55526820400596E-04
     -1.41861569309393E-17   1.50000000000000E+00   1.50000000000000E+00   0.00000000000000E+00   0.00000000000000E+00
      1.55527027424708E-04  -8.83518159368857E-27   1.55527027424708E-04   5.02981809718152E-16
      3.00000000000000E-01
      4.50000000000000E-01   4.50000000000000E-01   0.00000000000000E+00   0.00000000000000E+00   0.00000000000000E+00
      0.00000000000000E+00   0.00000000000000E+00   2.15553965692773E-16   0.00000000000000E+00   0.00000000000000E+00
      0.00000000000000E+00   0.00000000000000E+00  -1.85960423690588E-04  -6.17985858737000E-25  -1.85960423690588E-04
     -2.01529764027899E-17   1.50000000000000E+00   1.50000000000000E+00   0.00000000000000E+00   0.00000000000000E+00
      1.85960590643590E-04  -1.31792854927183E-26   1.85960590643590E-04   4.92872391847341E-16
      3.16666666666667E-01
      4.75000000000000E-01   4.75000000000000E-01   0.00000000000000E+00   0.00000000000000E+00   0.00000000000000E+00
      0.00000000000000E+00   0.00000000000000E+00   3.21627603941737E-16   0.00000000000000E+00   0.00000000000000E+00
      0.00000000000000E+00   0.00000000000000E+00  -2.18463577211544E-04  -5.71900114203724E-25  -2.18463577211544E-04
     -2.60489302512289E-17   1.50000000000000E+00   1.50000000000000E+00   0.00000000000000E+00   0.00000000000000E+00
      2.18463711272390E-04  -5.72771025202877E-27   2.18463711272390E-04   4.82696068349501E-16
      3.33333333333333E-01
      5.00000000000000E-01   5.00000000000000E-01   0.00000000000000E+00   0.00000000000000E+00   0.00000000000000E+00
      0.00000000000000E+00   0.00000000000000E+00   4.30758535757694E-16   0.00000000000000E+00   0.00000000000000E+00
      0.00000000000000E+00   0.00000000000000E+00  -2.52870621100496E-04  -7.31909340576585E-25  -2.52870621100496E-04
     -3.18816410070358E-17   1.50000000000000E+00   1.50000000000000E+00   0.00000000000000E+00   0.00000000000000E+00
      2.52870728208249E-04   2.40291473084089E-27   2.52870728208249E-04   4.72456684226939E-16
      3.50000000000000E-01
      5.25000000000000E-01   5.25000000000000E-01   0.00000000000000E+00   0.00000000000000E+00   0.00000000000000E+00
      0.00000000000000E+00   0.00000000000000E+00   5.42659156490163E-16   0.00000000000000E+00   0.00000000000000E+00
      0.00000000000000E+00   0.00000000000000E+00  -2.89028601770056E-04  -2.62794724125428E-25  -2.89028601770056E-04
     -3.76578293528358E-17   1.50000000000000E+00   1.50000000000000E+00   0.00000000000000E+00   0.00000000000000E+00
      2.89028686923859E-04   3.75574074913622E-28   2.89028686923859E-04   4.62157958125337E-16
      3.66666666666667E-01
      5.50000000000000E-01   5.50000000000000E-01   0.00000000000000E+00   0.00000000000000E+00   0.00000000000000E+00
      0.00000000000000E+00   0.00000000000000E+00   6.57068800907791E-16   0.00000000000000E+00   0.00000000000000E+00
      0.00000000000000E+00   0.00000000000000E+00  -3.26796659475323E-04  -2.39870258329348E-26  -3.26796659475323E-04
     -4.33834274892906E-17   1.50000000000000E+00   1.50000000000000E+00   0.00000000000000E+00   0.00000000000000E+00
      3.26796726940598E-04   2.97319244262943E-29   3.26796726940598E-04   4.51803484394685E-16
      3.83333333333333E-01
      5.75000000000000E-01   5.75000000000000E-01   0.00000000000000E+00   0.00000000000000E+00   0.00000000000000E+00
      0.00000000000000E+00   0.00000000000000E+00   7.73744856040749E-16   0.00000000000000E+00   0.00000000000000E+00
      0.00000000000000E+00   0.00000000000000E+00  -3.66046151007558E-04  -1.81807920424935E-27  -3.66046151007558E-04
     -4.90636749948440E-17   1.50000000000000E+00   1.50000000000000E+00   0.00000000000000E+00   0.00000000000000E+00
      3.66046204319312E-04  -5.47560193861033E-30   3.66046204319312E-04   4.41396635549053E-16
      4.00000000000000E-01
      6.00000000000000E-01   6.00000000000000E-01   0.00000000000000E+00   0.00000000000000E+00   0.00000000000000E+00
      0.00000000000000E+00   0.00000000000000E+00   8.92436099146061E-16   0.00000000000000E+00   0.00000000000000E+00
      0.00000000000000E+00   0.00000000000000E+00  -4.06665253029062E-04  -6.56319390095473E-27  -4.06665253029062E-04
     -5.47032044422333E-17   1.50000000000000E+00   1.50000000000000E+00   0.00000000000000E+00   0.00000000000000E+00
      4.06665295096924E-04  -3.05214480301712E-30   4.06665295096924E-04   4.30939901398675E-16
      4.16666666666667E-01
      6.25000000000000E-01   6.25000000000000E-01   0.00000000000000E+00   0.00000000000000E+00   0.00000000000000E+00
      0.00000000000000E+00   0.00000000000000E+00   1.01329159789299E-15   0.00000000000000E+00   0.00000000000000E+00
      0.00000000000000E+00   0.00000000000000E+00  -4.48466015167199E-04  -3.03924358441287E-27  -4.48466015167199E-04
     -6.03060647788353E-17   1.50000000000000E+00   1.50000000000000E+00   0.00000000000000E+00   0.00000000000000E+00
      4.48466048277956E-04  -4.16631622129124E-30   4.48466048277956E-04   4.20446902589365E-16
      4.33333333333333E-01
      6.50000000000000E-01   6.50000000000000E-01   0.00000000000000E+00   0.00000000000000E+00   0.00000000000000E+00
      0.00000000000000E+00   0.00000000000000E+00   1.13596457346076E-15   0.00000000000000E+00   0.00000000000000E+00
      0.00000000000000E+00   0.00000000000000E+00  -4.91375680026150E-04  -1.84039461938116E-28  -4.91375680026150E-04
     -6.58758922908886E-17   1.50000000000000E+00   1.50000000000000E+00   0.00000000000000E+00   0.00000000000000E+00
      4.91375706183732E-04  -6.35425199156542E-31   4.91375706183732E-04   4.09916338806215E-16
      4.50000000000000E-01
      6.75000000000000E-01   6.75000000000000E-01   0.00000000000000E+00   0.00000000000000E+00   0.00000000000000E+00
      0.00000000000000E+00   0.00000000000000E+00   1.26022107187605E-15   0.00000000000000E+00   0.00000000000000E+00
      0.00000000000000E+00   0.00000000000000E+00  -5.35313674953516E-04  -2.17507084804787E-27  -5.35313674953516E-04
     -7.14158963575217E-17   1.50000000000000E+00   1.50000000000000E+00   0.00000000000000E+00   0.00000000000000E+00
      5.35313695629601E-04   6.29381368427935E-29   5.35313695629601E-04   3.99349753155580E-16
      4.66666666666667E-01
      7.00000000000000E-01   7.00000000000000E-01   0.00000000000000E+00   0.00000000000000E+00   0.00000000000000E+00
      0.00000000000000E+00   0.00000000000000E+00   1.38593606439910E-15   0.00000000000000E+00   0.00000000000000E+00
      0.00000000000000E+00   0.00000000000000E+00  -5.80185195092569E-04  -1.14261708613557E-27  -5.80185195092569E-04
     -7.69289089035568E-17   1.50000000000000E+00   1.50000000000000E+00   0.00000000000000E+00   0.00000000000000E+00
      5.80185211460230E-04   3.10142669667187E-30   5.80185211460230E-04   3.88751539198132E-16
      4.83333333333333E-01
      7.25000000000000E-01   7.25000000000000E-01   0.00000000000000E+00   0.00000000000000E+00   0.00000000000000E+00
      0.00000000000000E+00   0.00000000000000E+00   1.51298839614774E-15   0.00000000000000E+00   0.00000000000000E+00
      0.00000000000000E+00   0.00000000000000E+00  -6.25903710737939E-04   1.41372755705134E-26  -6.25903710737939E-04
     -8.24174436397892E-17   1.50000000000000E+00   1.50000000000000E+00   0.00000000000000E+00   0.00000000000000E+00
      6.25903723718905E-04  -1.38762168492780E-26   6.25903723718905E-04   3.78125856539063E-16
      5.00000000000000E-01
      7.50000000000000E-01   7.50000000000000E-01   0.00000000000000E+00   0.00000000000000E+00   0.00000000000000E+00
      0.00000000000000E+00   0.00000000000000E+00   1.64126592635053E-15   0.00000000000000E+00   0.00000000000000E+00
      0.00000000000000E+00   0.00000000000000E+00  -6.72389270231193E-04  -4.67120034145569E-29  -6.72389270231193E-04
     -8.78837321785815E-17   1.50000000000000E+00   1.50000000000000E+00   0.00000000000000E+00   0.00000000000000E+00
      6.72389280554504E-04  -3.44735189596157E-28   6.72389280554504E-04   3.67476812536675E-16
      5.16666666666667E-01
      7.75000000000000E-01   7.75000000000000E-01   0.00000000000000E+00   0.00000000000000E+00   0.00000000000000E+00
      0.00000000000000E+00   0.00000000000000E+00   1.77066582735496E-15   0.00000000000000E+00   0.00000000000000E+00
      0.00000000000000E+00   0.00000000000000E+00  -7.19567795671923E-04  -2.28154768450988E-26  -7.19567795671923E-04
     -9.33297605876484E-17   1.50000000000000E+00   1.50000000000000E+00   0.00000000000000E+00   0.00000000000000E+00
      7.19567803903194E-04  -3.60510222329069E-25   7.19567803903194E-04   3.56808501343545E-16
      5.33333333333333E-01
      8.00000000000000E-01   8.00000000000000E-01   0.00000000000000E+00   0.00000000000000E+00   0.00000000000000E+00
      0.00000000000000E+00   0.00000000000000E+00   1.90109407032440E-15   0.00000000000000E+00   0.00000000000000E+00
      0.00000000000000E+00   0.00000000000000E+00  -7.67370609433215E-04  -5.76425670115125E-29  -7.67370609433215E-04
     -9.87572995460582E-17   1.50000000000000E+00   1.50000000000000E+00   0.00000000000000E+00   0.00000000000000E+00
      7.67370616015949E-04  -1.43395747386037E-30   7.67370616015949E-04   3.46125007678639E-16
      5.50000000000000E-01
      8.25000000000000E-01   8.25000000000000E-01   0.00000000000000E+00   0.00000000000000E+00   0.00000000000000E+00
      0.00000000000000E+00   0.00000000000000E+00   2.03246476842217E-15   0.00000000000000E+00   0.00000000000000E+00
      0.00000000000000E+00   0.00000000000000E+00  -8.15734067669450E-04  -2.57578691582419E-30  -8.15734067669450E-04
     -1.04167929326979E-16   1.50000000000000E+00   1.50000000000000E+00   0.00000000000000E+00   0.00000000000000E+00
      8.15734072944577E-04   6.14309046922309E-27   8.15734072944577E-04   3.35430403152020E-16
      5.66666666666667E-01
      8.50000000000000E-01   8.50000000000000E-01   0.00000000000000E+00   0.00000000000000E+00   0.00000000000000E+00
      0.00000000000000E+00   0.00000000000000E+00   2.16469939224030E-15   0.00000000000000E+00   0.00000000000000E+00
      0.00000000000000E+00   0.00000000000000E+00  -8.64599195091961E-04  -1.12899690268043E-28  -8.64599195091961E-04
     -1.09563064132634E-16   1.50000000000000E+00   1.50000000000000E+00   0.00000000000000E+00   0.00000000000000E+00
      8.64599199332916E-04   7.49311867512629E-27   8.64599199332916E-04   3.24728738412091E-16
      5.83333333333333E-01
      8.75000000000000E-01   8.75000000000000E-01   0.00000000000000E+00   0.00000000000000E+00   0.00000000000000E+00
      0.00000000000000E+00   0.00000000000000E+00   2.29772607060344E-15   0.00000000000000E+00   0.00000000000000E+00
      0.00000000000000E+00   0.00000000000000E+00  -9.13911374221223E-04   1.91438280680160E-27  -9.13911374221223E-04
     -1.14943972197700E-16   1.50000000000000E+00   1.50000000000000E+00   0.00000000000000E+00   0.00000000000000E+00
      9.13911377645167E-04  -2.23698223665187E-26   9.13911377645167E-04   3.14024033493386E-16
      6.00000000000000E-01
      9.00000000000000E-01   9.00000000000000E-01   0.00000000000000E+00   0.00000000000000E+00   0.00000000000000E+00
      0.00000000000000E+00   0.00000000000000E+00   2.43147894245173E-15   0.00000000000000E+00   0.00000000000000E+00
      0.00000000000000E+00   0.00000000000000E+00  -9.63620058983736E-04  -9.50222910975307E-28  -9.63620058983736E-04
     -1.20311792639814E-16   1.50000000000000E+00   1.50000000000000E+00   0.00000000000000E+00   0.00000000000000E+00
      9.63620061755024E-04  -5.11554746962105E-27   9.63620061755024E-04   3.03320263235870E-16
      6.16666666666667E-01
      9.25000000000000E-01   9.25000000000000E-01   0.00000000000000E+00   0.00000000000000E+00   0.00000000000000E+00
      0.00000000000000E+00   0.00000000000000E+00   2.56589753626315E-15   0.00000000000000E+00   0.00000000000000E+00
      0.00000000000000E+00   0.00000000000000E+00  -1.01367850069178E-03  -2.67915118866056E-30  -1.01367850069178E-03
     -1.25667551351405E-16   1.50000000000000E+00   1.50000000000000E+00   0.00000000000000E+00   0.00000000000000E+00
      1.01367850293978E-03  -1.74726224037783E-30   1.01367850293978E-03   2.92621343365338E-16
      6.33333333333334E-01
      9.50000000000000E-01   9.50000000000000E-01   0.00000000000000E+00   0.00000000000000E+00   0.00000000000000E+00
      0.00000000000000E+00   0.00000000000000E+00   2.70092620771659E-15   0.00000000000000E+00   0.00000000000000E+00
      0.00000000000000E+00   0.00000000000000E+00  -1.06404349819521E-03  -1.81338097157899E-29  -1.06404349819521E-03
     -1.31012174024658E-16   1.50000000000000E+00   1.50000000000000E+00   0.00000000000000E+00   0.00000000000000E+00
      1.06404350002664E-03  -1.72251603611733E-32   1.06404350002664E-03   2.81931113851234E-16
      6.50000000000000E-01
      9.75000000000001E-01   9.75000000000001E-01   0.00000000000000E+00   0.00000000000000E+00   0.00000000000000E+00
      0.00000000000000E+00   0.00000000000000E+00   2.83651359663817E-15   0.00000000000000E+00   0.00000000000000E+00
      0.00000000000000E+00   0.00000000000000E+00  -1.11467516417052E-03   1.03300350188789E-29  -1.11467516417052E-03
     -1.36346498153801E-16   1.50000000000000E+00   1.50000000000000E+00   0.00000000000000E+00   0.00000000000000E+00
      1.11467516566380E-03  -1.59923762668895E-32   1.11467516566380E-03   2.71253325208450E-16
      6.66666666666667E-01
      1.00000000000000E+00   1.00000000000000E+00   0.00000000000000E+00   0.00000000000000E+00   0.00000000000000E+00
      0.00000000000000E+00   0.00000000000000E+00   2.97261213451442E-15   0.00000000000000E+00   0.00000000000000E+00
      0.00000000000000E+00   0.00000000000000E+00  -1.16553672478332E-03  -1.55140744080134E-29  -1.16553672478332E-03
     -1.41671282232941E-16   1.50000000000000E+00   1.50000000000000E+00   0.00000000000000E+00   0.00000000000000E+00
      1.16553672600440E-03   5.15961573530020E-32   1.16553672600440E-03   2.60591616944054E-16
      6.83333333333334E-01
      1.02500000000000E+00   1.02500000000000E+00   0.00000000000000E+00   0.00000000000000E+00   0.00000000000000E+00
      0.00000000000000E+00   0.00000000000000E+00   3.10917749204300E-15   0.00000000000000E+00   0.00000000000000E+00
      0.00000000000000E+00   0.00000000000000E+00  -1.21659433632299E-03  -3.75591612408102E-29  -1.21659433632299E-03
     -1.46987215060235E-16   1.50000000000000E+00   1.50000000000000E+00   0.00000000000000E+00   0.00000000000000E+00
      1.21659433732617E-03  -3.70158662814833E-31   1.21659433732617E-03   2.49949499790376E-16
      7.00000000000001E-01
      1.05000000000000E+00   1.05000000000000E+00   0.00000000000000E+00   0.00000000000000E+00   0.00000000000000E+00
      0.00000000000000E+00   0.00000000000000E+00   3.24616791243390E-15   0.00000000000000E+00   0.00000000000000E+00
      0.00000000000000E+00   0.00000000000000E+00  -1.26781694938206E-03  -4.89958738939217E-29  -1.26781694938206E-03
     -1.52294923710818E-16   1.50000000000000E+00   1.50000000000000E+00   0.00000000000000E+00   0.00000000000000E+00
      1.26781695020592E-03   1.97432025481921E-31   1.26781695020592E-03   2.39330336833993E-16
      7.16666666666667E-01
      1.07500000000000E+00   1.07500000000000E+00   0.00000000000000E+00   0.00000000000000E+00   0.00000000000000E+00
      0.00000000000000E+00   0.00000000000000E+00   3.38354318776737E-15   0.00000000000000E+00   0.00000000000000E+00
      0.00000000000000E+00   0.00000000000000E+00  -1.31917627585717E-03  -5.04031801169508E-29  -1.31917627585717E-03
     -1.57594980160884E-16   1.50000000000000E+00   1.50000000000000E+00   0.00000000000000E+00   0.00000000000000E+00
      1.31917627653730E-03   2.32726710969153E-29   1.31917627653730E-03   2.28737324822716E-16
      7.33333333333334E-01
      1.10000000000000E+00   1.10000000000000E+00   0.00000000000000E+00   0.00000000000000E+00   0.00000000000000E+00
      0.00000000000000E+00   0.00000000000000E+00   3.52126234044330E-15   0.00000000000000E+00   0.00000000000000E+00
      0.00000000000000E+00   0.00000000000000E+00  -1.37064703322482E-03   6.08569260120481E-26  -1.37064703322482E-03
     -1.62887907385560E-16   1.50000000000000E+00   1.50000000000000E+00   0.00000000000000E+00   0.00000000000000E+00
      1.37064703378790E-03  -1.69302293768788E-26   1.37064703378790E-03   2.18173468345801E-16
      7.50000000000001E-01
      1.12500000000000E+00   1.12500000000000E+00   0.00000000000000E+00   0.00000000000000E+00   0.00000000000000E+00
      0.00000000000000E+00   0.00000000000000E+00   3.65927438094468E-15   0.00000000000000E+00   0.00000000000000E+00
      0.00000000000000E+00   0.00000000000000E+00  -1.42222186098356E-03  -1.11633094386769E-25  -1.42222186098356E-03
     -1.68174189007646E-16   1.50000000000000E+00   1.50000000000000E+00   0.00000000000000E+00   0.00000000000000E+00
      1.42220638414635E-03  -2.88487635436944E-27   1.42220638414635E-03   2.07641474159399E-16
      7.66666666666667E-01
      1.15000000000000E+00   1.15000000000000E+00   0.00000000000000E+00   0.00000000000000E+00   0.00000000000000E+00
      0.00000000000000E+00   0.00000000000000E+00   3.79762679846790E-15   0.00000000000000E+00   0.00000000000000E+00
      0.00000000000000E+00   0.00000000000000E+00  -1.47383525362820E-03  -1.74944947930362E-25  -1.47383525362820E-03
     -1.73454252265466E-16   1.50000000000000E+00   1.50000000000000E+00   0.00000000000000E+00   0.00000000000000E+00
      1.47382045359822E-03  -1.08685870107334E-26   1.47382045359822E-03   1.97144418796176E-16
      7.83333333333334E-01
      1.17500000000000E+00   1.17500000000000E+00   0.00000000000000E+00   0.00000000000000E+00   0.00000000000000E+00
      0.00000000000000E+00   0.00000000000000E+00   3.93638445025887E-15   0.00000000000000E+00   0.00000000000000E+00
      0.00000000000000E+00   0.00000000000000E+00  -1.52546218167233E-03   1.63642607333972E-25  -1.52546218167233E-03
     -1.78728493445841E-16   1.50000000000000E+00   1.50000000000000E+00   0.00000000000000E+00   0.00000000000000E+00
      1.52545044288993E-03  -1.76227149382505E-27   1.52545044288993E-03   1.86685497183495E-16
      8.00000000000001E-01
      1.20000000000000E+00   1.20000000000000E+00   0.00000000000000E+00   0.00000000000000E+00   0.00000000000000E+00
      0.00000000000000E+00   0.00000000000000E+00   4.07542843432622E-15   0.00000000000000E+00   0.00000000000000E+00