DF-ISE text

Info {
  version   = 1.0
  type      = xyplot
  datasets  = [
    "time"
    "gate OuterVoltage" "gate InnerVoltage" "gate QuasiFermiPotential" "gate DisplacementCurrent" "gate eCurrent"
    "gate hCurrent" "gate TotalCurrent" "gate Charge" "source OuterVoltage" "source InnerVoltage"
    "source QuasiFermiPotential" "source DisplacementCurrent" "source eCurrent" "source hCurrent" "source TotalCurrent"
    "source Charge" "drain OuterVoltage" "drain InnerVoltage" "drain QuasiFermiPotential" "drain DisplacementCurrent"
    "drain eCurrent" "drain hCurrent" "drain TotalCurrent" "drain Charge" ]
  functions = [
    Time
    OuterVoltage InnerVoltage QuasiFermiPotential DisplacementCurrent eCurrent
    hCurrent TotalCurrent Charge OuterVoltage InnerVoltage
    QuasiFermiPotential DisplacementCurrent eCurrent hCurrent TotalCurrent
    Charge OuterVoltage InnerVoltage QuasiFermiPotential DisplacementCurrent
    eCurrent hCurrent TotalCurrent Charge ]
}

Data {
      0.00000000000000E+00
      0.00000000000000E+00   0.00000000000000E+00   0.00000000000000E+00   0.00000000000000E+00   0.00000000000000E+00
      0.00000000000000E+00   0.00000000000000E+00   5.31883339183657E-16   0.00000000000000E+00   0.00000000000000E+00
      0.00000000000000E+00   0.00000000000000E+00   2.15300906324091E-08   8.18126648416485E-16   2.15300914505357E-08
     -1.16953176232007E-16  -8.50000000000000E-01  -8.50000000000000E-01   0.00000000000000E+00   0.00000000000000E+00
     -2.15300919957261E-08  -2.43373951400979E-12  -2.15325257352401E-08  -4.16529711744330E-16
      1.66666666666667E-02
     -1.66666666666667E-03  -1.66666666666667E-03   0.00000000000000E+00   0.00000000000000E+00   0.00000000000000E+00
      0.00000000000000E+00   0.00000000000000E+00   5.30694650988005E-16   0.00000000000000E+00   0.00000000000000E+00
      0.00000000000000E+00   0.00000000000000E+00   2.28026526977685E-08  -5.37137884831293E-15   2.28026473263897E-08
     -1.16332865414956E-16  -8.50000000000000E-01  -8.50000000000000E-01   0.00000000000000E+00   0.00000000000000E+00
     -2.28026482450609E-08  -1.94283340161469E-12  -2.28045910784625E-08  -4.15968642240183E-16
      3.33333333333333E-02
     -3.33333333333333E-03  -3.33333333333333E-03   0.00000000000000E+00   0.00000000000000E+00   0.00000000000000E+00
      0.00000000000000E+00   0.00000000000000E+00   5.29505580327898E-16   0.00000000000000E+00   0.00000000000000E+00
      0.00000000000000E+00   0.00000000000000E+00   2.41500650079124E-08  -1.69063787542923E-15   2.41500633172746E-08
     -1.15712384848137E-16  -8.50000000000000E-01  -8.50000000000000E-01   0.00000000000000E+00   0.00000000000000E+00
     -2.41500634833577E-08  -3.84700495389242E-12  -2.41539104883116E-08  -4.15407495103297E-16
      5.00000000000000E-02
     -5.00000000000000E-03  -5.00000000000000E-03   0.00000000000000E+00   0.00000000000000E+00   0.00000000000000E+00
      0.00000000000000E+00   0.00000000000000E+00   5.28316123869664E-16   0.00000000000000E+00   0.00000000000000E+00
      0.00000000000000E+00   0.00000000000000E+00   2.55770176246142E-08  -8.74654840617597E-16   2.55770167499594E-08
     -1.15091734806436E-16  -8.50000000000000E-01  -8.50000000000000E-01   0.00000000000000E+00   0.00000000000000E+00
     -2.55770171091412E-08  -2.20529314215832E-12  -2.55792224022834E-08  -4.14846269728726E-16
      6.66666666666667E-02
     -6.66666666666667E-03  -6.66666666666667E-03   0.00000000000000E+00   0.00000000000000E+00   0.00000000000000E+00
      0.00000000000000E+00   0.00000000000000E+00   5.27126279190900E-16   0.00000000000000E+00   0.00000000000000E+00
      0.00000000000000E+00   0.00000000000000E+00   2.70877677168840E-08   1.71970491310914E-14   2.70877849139331E-08
     -1.14470915630925E-16  -8.50000000000000E-01  -8.50000000000000E-01   0.00000000000000E+00   0.00000000000000E+00
     -2.70877863567761E-08   2.08393402581493E-12  -2.70857024227503E-08  -4.14284967020397E-16
      8.33333333333333E-02
     -8.33333333333333E-03  -8.33333333333333E-03   0.00000000000000E+00   0.00000000000000E+00   0.00000000000000E+00
      0.00000000000000E+00   0.00000000000000E+00   5.25936043236590E-16   0.00000000000000E+00   0.00000000000000E+00
      0.00000000000000E+00   0.00000000000000E+00   2.86871744070230E-08   1.31874965165707E-14   2.86871875945195E-08
     -1.13849927660016E-16  -8.50000000000000E-01  -8.50000000000000E-01   0.00000000000000E+00   0.00000000000000E+00
     -2.86871889181201E-08   2.80648276281094E-12  -2.86843824353573E-08  -4.13723587031120E-16
      1.00000000000000E-01
     -1.00000000000000E-02  -1.00000000000000E-02   0.00000000000000E+00   0.00000000000000E+00   0.00000000000000E+00
      0.00000000000000E+00   0.00000000000000E+00   5.24745415164758E-16   0.00000000000000E+00   0.00000000000000E+00
      0.00000000000000E+00   0.00000000000000E+00   3.03805459553365E-08  -1.09142192011704E-13   3.03804368131445E-08
     -1.13228771246498E-16  -8.50000000000000E-01  -8.50000000000000E-01   0.00000000000000E+00   0.00000000000000E+00
     -3.03805511865133E-08   4.79745284564016E-12  -3.03757537336677E-08  -4.13162132115800E-16
      1.16666666666667E-01
     -1.16666666666667E-02  -1.16666666666667E-02   0.00000000000000E+00   0.00000000000000E+00   0.00000000000000E+00
      0.00000000000000E+00   0.00000000000000E+00   5.23554383555288E-16   0.00000000000000E+00   0.00000000000000E+00
      0.00000000000000E+00   0.00000000000000E+00   3.21733766485923E-08   1.02458532223080E-15   3.21733776731776E-08
     -1.12607446803099E-16  -8.50000000000000E-01  -8.50000000000000E-01   0.00000000000000E+00   0.00000000000000E+00
     -3.21733758687151E-08   2.26997257000339E-12  -3.21711058961451E-08  -4.12600594228296E-16
      1.33333333333333E-01
     -1.33333333333333E-02  -1.33333333333333E-02   0.00000000000000E+00   0.00000000000000E+00   0.00000000000000E+00
      0.00000000000000E+00   0.00000000000000E+00   5.22362955611014E-16   0.00000000000000E+00   0.00000000000000E+00
      0.00000000000000E+00   0.00000000000000E+00   3.40714582912021E-08  -1.21368470304787E-13   3.40713369227318E-08
     -1.11985954704489E-16  -8.50000000000000E-01  -8.50000000000000E-01   0.00000000000000E+00   0.00000000000000E+00
     -3.40714545815395E-08   7.62541305311942E-12  -3.40638291684864E-08  -4.12038983882047E-16
      1.50000000000000E-01
     -1.50000000000000E-02  -1.50000000000000E-02   0.00000000000000E+00   0.00000000000000E+00   0.00000000000000E+00
      0.00000000000000E+00   0.00000000000000E+00   5.21171120386365E-16   0.00000000000000E+00   0.00000000000000E+00
      0.00000000000000E+00   0.00000000000000E+00   3.60809436159226E-08  -1.26334042362162E-13   3.60808172818803E-08
     -1.11364295401176E-16  -8.50000000000000E-01  -8.50000000000000E-01   0.00000000000000E+00   0.00000000000000E+00
     -3.60809362944984E-08   1.05702533749888E-11  -3.60703660411234E-08  -4.11477293535853E-16
      1.66666666666667E-01
     -1.66666666666667E-02  -1.66666666666667E-02   0.00000000000000E+00   0.00000000000000E+00   0.00000000000000E+00
      0.00000000000000E+00   0.00000000000000E+00   5.19978876057689E-16   0.00000000000000E+00   0.00000000000000E+00
      0.00000000000000E+00   0.00000000000000E+00   3.82082768371292E-08  -9.58612126692711E-14   3.82081809759165E-08
     -1.10742469354980E-16  -8.50000000000000E-01  -8.50000000000000E-01   0.00000000000000E+00   0.00000000000000E+00
     -3.82082979675293E-08   1.39385060348164E-11  -3.81943594614945E-08  -4.10915525023812E-16
      1.83333333333333E-01
     -1.83333333333333E-02  -1.83333333333333E-02   0.00000000000000E+00   0.00000000000000E+00   0.00000000000000E+00
      0.00000000000000E+00   0.00000000000000E+00   5.18786219556992E-16   0.00000000000000E+00   0.00000000000000E+00
      0.00000000000000E+00   0.00000000000000E+00   4.04604057459167E-08  -1.27441309684324E-13   4.04602783046070E-08
     -1.10120477041369E-16  -8.50000000000000E-01  -8.50000000000000E-01   0.00000000000000E+00   0.00000000000000E+00
     -4.04603994453622E-08   1.80155876852499E-11  -4.04423838576770E-08  -4.10353678801270E-16
      2.00000000000000E-01
     -2.00000000000000E-02  -2.00000000000000E-02   0.00000000000000E+00   0.00000000000000E+00   0.00000000000000E+00
      0.00000000000000E+00   0.00000000000000E+00   5.17593147037913E-16   0.00000000000000E+00   0.00000000000000E+00
      0.00000000000000E+00   0.00000000000000E+00   4.28444592508387E-08  -1.03304930421141E-13   4.28443559459083E-08
     -1.09498318976267E-16  -8.50000000000000E-01  -8.50000000000000E-01   0.00000000000000E+00   0.00000000000000E+00
     -4.28444755925137E-08   2.21083205032590E-11  -4.28223672720105E-08  -4.09791754813453E-16
      2.16666666666667E-01
     -2.16666666666667E-02  -2.16666666666667E-02   0.00000000000000E+00   0.00000000000000E+00   0.00000000000000E+00
      0.00000000000000E+00   0.00000000000000E+00   5.16399654673264E-16   0.00000000000000E+00   0.00000000000000E+00
      0.00000000000000E+00   0.00000000000000E+00   4.53682218072885E-08  -1.19992102748105E-13   4.53681018151858E-08
     -1.08875995688581E-16  -8.50000000000000E-01  -8.50000000000000E-01   0.00000000000000E+00   0.00000000000000E+00
     -4.53682236543168E-08   2.59252106932661E-11  -4.53422984436236E-08  -4.09229752975336E-16
      2.33333333333333E-01
     -2.33333333333333E-02  -2.33333333333333E-02   0.00000000000000E+00   0.00000000000000E+00   0.00000000000000E+00
      0.00000000000000E+00   0.00000000000000E+00   5.15205738220813E-16   0.00000000000000E+00   0.00000000000000E+00
      0.00000000000000E+00   0.00000000000000E+00   4.80397603991685E-08  -1.01224227727009E-13   4.80396591749408E-08
     -1.08253507748427E-16  -8.50000000000000E-01  -8.50000000000000E-01   0.00000000000000E+00   0.00000000000000E+00
     -4.80397802521067E-08   2.99640114105738E-11  -4.80098162406961E-08  -4.08667672984879E-16
      2.50000000000000E-01
     -2.50000000000000E-02  -2.50000000000000E-02   0.00000000000000E+00   0.00000000000000E+00   0.00000000000000E+00
      0.00000000000000E+00   0.00000000000000E+00   5.14011393803680E-16   0.00000000000000E+00   0.00000000000000E+00
      0.00000000000000E+00   0.00000000000000E+00   5.08677728009108E-08  -1.19288151324564E-13   5.08676535127594E-08
     -1.07630855744150E-16  -8.50000000000000E-01  -8.50000000000000E-01   0.00000000000000E+00   0.00000000000000E+00
     -5.08677768322757E-08   3.55368850764188E-11  -5.08322399471993E-08  -4.08105514923904E-16
      2.66666666666667E-01
     -2.66666666666667E-02  -2.66666666666667E-02   0.00000000000000E+00   0.00000000000000E+00   0.00000000000000E+00
      0.00000000000000E+00   0.00000000000000E+00   5.12816617393480E-16   0.00000000000000E+00   0.00000000000000E+00
      0.00000000000000E+00   0.00000000000000E+00   5.38612984800739E-08  -1.05271858765505E-13   5.38611932082152E-08
     -1.07008040303599E-16  -8.50000000000000E-01  -8.50000000000000E-01   0.00000000000000E+00   0.00000000000000E+00
     -5.38613154509319E-08   4.43199225817943E-11  -5.38169955283501E-08  -4.07543278944556E-16
      2.83333333333333E-01
     -2.83333333333333E-02  -2.83333333333333E-02   0.00000000000000E+00   0.00000000000000E+00   0.00000000000000E+00
      0.00000000000000E+00   0.00000000000000E+00   5.11621404366138E-16   0.00000000000000E+00   0.00000000000000E+00
      0.00000000000000E+00   0.00000000000000E+00   5.70300246577965E-08  -1.30010054922067E-13   5.70298946477416E-08
     -1.06385062077575E-16  -8.50000000000000E-01  -8.50000000000000E-01   0.00000000000000E+00   0.00000000000000E+00
     -5.70300192026436E-08   5.78492794402463E-11  -5.69721699232034E-08  -4.06980964593005E-16
      3.00000000000000E-01
     -3.00000000000000E-02  -3.00000000000000E-02   0.00000000000000E+00   0.00000000000000E+00   0.00000000000000E+00
      0.00000000000000E+00   0.00000000000000E+00   5.10425750704854E-16   0.00000000000000E+00   0.00000000000000E+00
      0.00000000000000E+00   0.00000000000000E+00   6.03840046388743E-08  -1.03732973100515E-13   6.03839009059012E-08
     -1.05761921755168E-16  -8.50000000000000E-01  -8.50000000000000E-01   0.00000000000000E+00   0.00000000000000E+00
     -6.03840236222048E-08   7.71928726166444E-11  -6.03068307495882E-08  -4.06418572245026E-16
      3.16666666666667E-01
     -3.16666666666667E-02  -3.16666666666667E-02   0.00000000000000E+00   0.00000000000000E+00   0.00000000000000E+00
      0.00000000000000E+00   0.00000000000000E+00   5.09229651769670E-16   0.00000000000000E+00   0.00000000000000E+00
      0.00000000000000E+00   0.00000000000000E+00   6.39340414260419E-08  -1.02406546481607E-13   6.39339390194954E-08
     -1.05138620058375E-16  -8.50000000000000E-01  -8.50000000000000E-01   0.00000000000000E+00   0.00000000000000E+00
     -6.39340614514887E-08   1.03124032674402E-10  -6.38309374188143E-08  -4.05856101725192E-16
      3.33333333333333E-01
     -3.33333333333333E-02  -3.33333333333333E-02   0.00000000000000E+00   0.00000000000000E+00   0.00000000000000E+00
      0.00000000000000E+00   0.00000000000000E+00   5.08033100552035E-16   0.00000000000000E+00   0.00000000000000E+00
      0.00000000000000E+00   0.00000000000000E+00   6.76914257602886E-08   1.85524238947998E-14   6.76914443127125E-08
     -1.04515157751596E-16  -8.50000000000000E-01  -8.50000000000000E-01   0.00000000000000E+00   0.00000000000000E+00
     -6.76914457968345E-08   3.89739921993657E-11  -6.76524718046352E-08  -4.05293550409816E-16
      3.50000000000000E-01
     -3.50000000000000E-02  -3.50000000000000E-02   0.00000000000000E+00   0.00000000000000E+00   0.00000000000000E+00
      0.00000000000000E+00   0.00000000000000E+00   5.06836098973336E-16   0.00000000000000E+00   0.00000000000000E+00
      0.00000000000000E+00   0.00000000000000E+00   7.16682200659308E-08  -1.13346815408473E-13   7.16681067191153E-08
     -1.03891535604006E-16  -8.50000000000000E-01  -8.50000000000000E-01   0.00000000000000E+00   0.00000000000000E+00
     -7.16682297299337E-08   1.23740617276106E-10  -7.15444891126576E-08  -4.04730925476717E-16
      3.66666666666667E-01
     -3.66666666666667E-02  -3.66666666666667E-02   0.00000000000000E+00   0.00000000000000E+00   0.00000000000000E+00
      0.00000000000000E+00   0.00000000000000E+00   5.05638633202218E-16   0.00000000000000E+00   0.00000000000000E+00
      0.00000000000000E+00   0.00000000000000E+00   7.58772895552794E-08   5.69658332986180E-15   7.58772952518627E-08
     -1.03267754459168E-16  -8.50000000000000E-01  -8.50000000000000E-01   0.00000000000000E+00   0.00000000000000E+00
     -7.58772950739350E-08   7.57599167592926E-11  -7.58015351571757E-08  -4.04168217436029E-16
      3.83333333333333E-01
     -3.83333333333333E-02  -3.83333333333333E-02   0.00000000000000E+00   0.00000000000000E+00   0.00000000000000E+00
      0.00000000000000E+00   0.00000000000000E+00   5.04440706422575E-16   0.00000000000000E+00   0.00000000000000E+00
      0.00000000000000E+00   0.00000000000000E+00   8.03318902136514E-08  -1.01256463425988E-13   8.03317889571880E-08
     -1.02643815163412E-16  -8.50000000000000E-01  -8.50000000000000E-01   0.00000000000000E+00   0.00000000000000E+00
     -8.03319108258743E-08   2.23000510151424E-10  -8.01089103157228E-08  -4.03605435153499E-16
      4.00000000000000E-01
     -4.00000000000000E-02  -4.00000000000000E-02   0.00000000000000E+00   0.00000000000000E+00   0.00000000000000E+00
      0.00000000000000E+00   0.00000000000000E+00   5.03242307601851E-16   0.00000000000000E+00   0.00000000000000E+00
      0.00000000000000E+00   0.00000000000000E+00   8.50463572371522E-08  -1.08460173196694E-13   8.50462487769790E-08
     -1.02019718632395E-16  -8.50000000000000E-01  -8.50000000000000E-01   0.00000000000000E+00   0.00000000000000E+00
     -8.50463704563850E-08   4.09275639653717E-10  -8.46370948167312E-08  -4.03042572513519E-16
      4.16666666666667E-01
     -4.16666666666667E-02  -4.16666666666667E-02   0.00000000000000E+00   0.00000000000000E+00   0.00000000000000E+00
      0.00000000000000E+00   0.00000000000000E+00   5.02043429987799E-16   0.00000000000000E+00   0.00000000000000E+00
      0.00000000000000E+00   0.00000000000000E+00   9.00355015237276E-08  -1.39242797678711E-15   9.00355001312996E-08
     -1.01395465819072E-16  -8.50000000000000E-01  -8.50000000000000E-01   0.00000000000000E+00   0.00000000000000E+00
     -9.00355024253220E-08   1.54752745736526E-10  -8.98807496795855E-08  -4.02479627443534E-16
      4.33333333333333E-01
     -4.33333333333333E-02  -4.33333333333333E-02   0.00000000000000E+00   0.00000000000000E+00   0.00000000000000E+00
      0.00000000000000E+00   0.00000000000000E+00   5.00844072200371E-16   0.00000000000000E+00   0.00000000000000E+00
      0.00000000000000E+00   0.00000000000000E+00   9.53155660680402E-08   4.74361722839729E-15   9.53155708116574E-08
     -1.00771057691519E-16  -8.50000000000000E-01  -8.50000000000000E-01   0.00000000000000E+00   0.00000000000000E+00
     -9.53155721798993E-08   8.43743636536990E-11  -9.52311978162456E-08  -4.01916605122540E-16
      4.50000000000000E-01
     -4.50000000000000E-02  -4.50000000000000E-02   0.00000000000000E+00   0.00000000000000E+00   0.00000000000000E+00
      0.00000000000000E+00   0.00000000000000E+00   4.99644226578655E-16   0.00000000000000E+00   0.00000000000000E+00
      0.00000000000000E+00   0.00000000000000E+00   1.00903370224905E-07  -6.84396491350537E-15   1.00903363380941E-07
     -1.00146495285176E-16  -8.50000000000000E-01  -8.50000000000000E-01   0.00000000000000E+00   0.00000000000000E+00
     -1.00903364290487E-07   2.36254380149234E-10  -1.00667109910338E-07  -4.01353503725917E-16
      4.66666666666667E-01
     -4.66666666666667E-02  -4.66666666666667E-02   0.00000000000000E+00   0.00000000000000E+00   0.00000000000000E+00
      0.00000000000000E+00   0.00000000000000E+00   4.98443887481286E-16   0.00000000000000E+00   0.00000000000000E+00
      0.00000000000000E+00   0.00000000000000E+00   1.06816138214222E-07   3.06259630799347E-15   1.06816141276819E-07
     -9.95217796682442E-17  -8.50000000000000E-01  -8.50000000000000E-01   0.00000000000000E+00   0.00000000000000E+00
     -1.06816141691389E-07   4.17588309689904E-10  -1.06398553381699E-07  -4.00790323305872E-16
      4.83333333333333E-01
     -4.83333333333333E-02  -4.83333333333333E-02   0.00000000000000E+00   0.00000000000000E+00   0.00000000000000E+00
      0.00000000000000E+00   0.00000000000000E+00   4.97243048020825E-16   0.00000000000000E+00   0.00000000000000E+00
      0.00000000000000E+00   0.00000000000000E+00   1.13072797120701E-07   3.08289631322939E-15   1.13072800203598E-07
     -9.88969119578174E-17  -8.50000000000000E-01  -8.50000000000000E-01   0.00000000000000E+00   0.00000000000000E+00
     -1.13072800886614E-07   3.00997665382355E-10  -1.12771803221232E-07  -4.00227062636461E-16
      5.00000000000000E-01
     -5.00000000000000E-02  -5.00000000000000E-02   0.00000000000000E+00   0.00000000000000E+00   0.00000000000000E+00
      0.00000000000000E+00   0.00000000000000E+00   4.96041702042901E-16   0.00000000000000E+00   0.00000000000000E+00
      0.00000000000000E+00   0.00000000000000E+00   1.19693523557938E-07   9.37903183858561E-15   1.19693532936970E-07
     -9.82718933173174E-17  -8.50000000000000E-01  -8.50000000000000E-01   0.00000000000000E+00   0.00000000000000E+00
     -1.19693532189163E-07   1.67377597412703E-10  -1.19526154591750E-07  -3.99663721884607E-16
      5.16666666666667E-01
     -5.16666666666667E-02  -5.16666666666667E-02   0.00000000000000E+00   0.00000000000000E+00   0.00000000000000E+00
      0.00000000000000E+00   0.00000000000000E+00   4.94839844039290E-16   0.00000000000000E+00   0.00000000000000E+00
      0.00000000000000E+00   0.00000000000000E+00   1.26699007803300E-07   7.07231024688428E-15   1.26699014875611E-07
     -9.76467249571976E-17  -8.50000000000000E-01  -8.50000000000000E-01   0.00000000000000E+00   0.00000000000000E+00
     -1.26699017691596E-07   4.86305164921358E-11  -1.26650387175104E-07  -3.99100301971438E-16
      5.33333333333333E-01
     -5.33333333333333E-02  -5.33333333333333E-02   0.00000000000000E+00   0.00000000000000E+00   0.00000000000000E+00
      0.00000000000000E+00   0.00000000000000E+00   4.93637470165295E-16   0.00000000000000E+00   0.00000000000000E+00
      0.00000000000000E+00   0.00000000000000E+00   1.34111197312369E-07  -9.17377195429099E-14   1.34111105574649E-07
     -9.70214081391127E-17  -8.50000000000000E-01  -8.50000000000000E-01   0.00000000000000E+00   0.00000000000000E+00
     -1.34111210996304E-07  -6.60030029467988E-11  -1.34177213999250E-07  -3.98536805598569E-16
      5.50000000000000E-01
     -5.50000000000000E-02  -5.50000000000000E-02   0.00000000000000E+00   0.00000000000000E+00   0.00000000000000E+00
      0.00000000000000E+00   0.00000000000000E+00   4.92434568369681E-16   0.00000000000000E+00   0.00000000000000E+00
      0.00000000000000E+00   0.00000000000000E+00   1.41953363451785E-07  -5.99763037691753E-14   1.41953303475481E-07
     -9.63959441857783E-17  -8.50000000000000E-01  -8.50000000000000E-01   0.00000000000000E+00   0.00000000000000E+00
     -1.41953297541119E-07  -1.04746699012693E-10  -1.42058044240131E-07  -3.97973227637833E-16
      5.66666666666667E-01
     -5.66666666666667E-02  -5.66666666666667E-02   0.00000000000000E+00   0.00000000000000E+00   0.00000000000000E+00
      0.00000000000000E+00   0.00000000000000E+00   4.91231139051820E-16   0.00000000000000E+00   0.00000000000000E+00
      0.00000000000000E+00   0.00000000000000E+00   1.50250095571229E-07  -8.83441021459776E-14   1.50250007227127E-07
     -9.57703344506610E-17  -8.50000000000000E-01  -8.50000000000000E-01   0.00000000000000E+00   0.00000000000000E+00
     -1.50250104503612E-07  -1.99008129135316E-10  -1.50449112632747E-07  -3.97409575407064E-16
      5.83333333333333E-01
     -5.83333333333333E-02  -5.83333333333333E-02   0.00000000000000E+00   0.00000000000000E+00   0.00000000000000E+00
      0.00000000000000E+00   0.00000000000000E+00   4.90027169086923E-16   0.00000000000000E+00   0.00000000000000E+00
      0.00000000000000E+00   0.00000000000000E+00   1.59027723666514E-07  -8.85717871891651E-14   1.59027635094727E-07
     -9.51445803710485E-17  -8.50000000000000E-01  -8.50000000000000E-01   0.00000000000000E+00   0.00000000000000E+00
     -1.59027728199683E-07  -3.33600840792693E-10  -1.59361329040476E-07  -3.96845843141374E-16
      6.00000000000000E-01
     -6.00000000000000E-02  -6.00000000000000E-02   0.00000000000000E+00   0.00000000000000E+00   0.00000000000000E+00
      0.00000000000000E+00   0.00000000000000E+00   4.88822652527086E-16   0.00000000000000E+00   0.00000000000000E+00
      0.00000000000000E+00   0.00000000000000E+00   1.68313733361455E-07  -1.01254856049205E-13   1.68313632106599E-07
     -9.45186834204097E-17  -8.50000000000000E-01  -8.50000000000000E-01   0.00000000000000E+00   0.00000000000000E+00
     -1.68313720222985E-07  -4.60452641325381E-10  -1.68774172864311E-07  -3.96282032533708E-16
      6.16666666666667E-01
     -6.16666666666667E-02  -6.16666666666667E-02   0.00000000000000E+00   0.00000000000000E+00   0.00000000000000E+00
      0.00000000000000E+00   0.00000000000000E+00   4.87617581935057E-16   0.00000000000000E+00   0.00000000000000E+00
      0.00000000000000E+00   0.00000000000000E+00   1.78137122524566E-07  -8.07608304992831E-14   1.78137041763735E-07
     -9.38926451434854E-17  -8.50000000000000E-01  -8.50000000000000E-01   0.00000000000000E+00   0.00000000000000E+00
     -1.78137114294072E-07  -5.23571160397653E-10  -1.78660685454470E-07  -3.95718144037396E-16
      6.33333333333334E-01
     -6.33333333333334E-02  -6.33333333333334E-02   0.00000000000000E+00   0.00000000000000E+00   0.00000000000000E+00
      0.00000000000000E+00   0.00000000000000E+00   4.86411949150736E-16   0.00000000000000E+00   0.00000000000000E+00
      0.00000000000000E+00   0.00000000000000E+00   1.88528605259103E-07  -7.79703255575204E-14   1.88528527288778E-07
     -9.32664671411626E-17  -8.50000000000000E-01  -8.50000000000000E-01   0.00000000000000E+00   0.00000000000000E+00
     -1.88528595739135E-07  -4.90591269016288E-10  -1.89019187008151E-07  -3.95154177716324E-16
      6.50000000000000E-01
     -6.50000000000000E-02  -6.50000000000000E-02   0.00000000000000E+00   0.00000000000000E+00   0.00000000000000E+00
      0.00000000000000E+00   0.00000000000000E+00   4.85205744936812E-16   0.00000000000000E+00   0.00000000000000E+00
      0.00000000000000E+00   0.00000000000000E+00   1.99520502174514E-07  -1.68056052031637E-15   1.99520500493954E-07
     -9.26401510745898E-17  -8.50000000000000E-01  -8.50000000000000E-01   0.00000000000000E+00   0.00000000000000E+00
     -1.99520500704503E-07  -1.96345466171527E-10  -1.99716846170674E-07  -3.94590133068661E-16
      6.66666666666667E-01
     -6.66666666666667E-02  -6.66666666666667E-02   0.00000000000000E+00   0.00000000000000E+00   0.00000000000000E+00
      0.00000000000000E+00   0.00000000000000E+00   4.83998964860813E-16   0.00000000000000E+00   0.00000000000000E+00
      0.00000000000000E+00   0.00000000000000E+00   2.11147247461900E-07  -1.02779074993434E-13   2.11147144682825E-07
     -9.20136986662148E-17  -8.50000000000000E-01  -8.50000000000000E-01   0.00000000000000E+00   0.00000000000000E+00
     -2.11147206351152E-07   3.85348861306917E-12  -2.11143352862539E-07  -3.94026013985571E-16
      6.83333333333334E-01
     -6.83333333333334E-02  -6.83333333333334E-02   0.00000000000000E+00   0.00000000000000E+00   0.00000000000000E+00
      0.00000000000000E+00   0.00000000000000E+00   4.82791594070160E-16   0.00000000000000E+00   0.00000000000000E+00
      0.00000000000000E+00   0.00000000000000E+00   2.23445017635949E-07  -4.89105652196459E-14   2.23444968725384E-07
     -9.13871117172503E-17  -8.50000000000000E-01  -8.50000000000000E-01   0.00000000000000E+00   0.00000000000000E+00
     -2.23445021555367E-07   3.37340098772505E-11  -2.23411287545490E-07  -3.93461814819307E-16
      7.00000000000001E-01
     -7.00000000000000E-02  -7.00000000000000E-02   0.00000000000000E+00   0.00000000000000E+00   0.00000000000000E+00
      0.00000000000000E+00   0.00000000000000E+00   4.81583622889141E-16   0.00000000000000E+00   0.00000000000000E+00
      0.00000000000000E+00   0.00000000000000E+00   2.36452241424798E-07  -1.46695216584516E-15   2.36452239957845E-07
     -9.07603920937793E-17  -8.50000000000000E-01  -8.50000000000000E-01   0.00000000000000E+00   0.00000000000000E+00
     -2.36452240522139E-07  -5.56593167917652E-11  -2.36507899838931E-07  -3.92897535406061E-16
      7.16666666666667E-01
     -7.16666666666667E-02  -7.16666666666667E-02   0.00000000000000E+00   0.00000000000000E+00   0.00000000000000E+00
      0.00000000000000E+00   0.00000000000000E+00   4.80375047077251E-16   0.00000000000000E+00   0.00000000000000E+00
      0.00000000000000E+00   0.00000000000000E+00   2.50208974384575E-07  -5.28124857624136E-15   2.50208969103326E-07
     -9.01335417291157E-17  -8.50000000000000E-01  -8.50000000000000E-01   0.00000000000000E+00   0.00000000000000E+00
     -2.50208984115190E-07  -1.83911374246982E-10  -2.50392895489437E-07  -3.92333180901350E-16
      7.33333333333334E-01
     -7.33333333333334E-02  -7.33333333333334E-02   0.00000000000000E+00   0.00000000000000E+00   0.00000000000000E+00
      0.00000000000000E+00   0.00000000000000E+00   4.79165851958229E-16   0.00000000000000E+00   0.00000000000000E+00
      0.00000000000000E+00   0.00000000000000E+00   2.64757934847961E-07  -4.02081200957166E-14   2.64757894639841E-07
     -8.95065626294608E-17  -8.50000000000000E-01  -8.50000000000000E-01   0.00000000000000E+00   0.00000000000000E+00
     -2.64757917103983E-07  -2.29483562899626E-10  -2.64987400666883E-07  -3.91768747261625E-16
      7.50000000000001E-01
     -7.50000000000001E-02  -7.50000000000001E-02   0.00000000000000E+00   0.00000000000000E+00   0.00000000000000E+00
      0.00000000000000E+00   0.00000000000000E+00   4.77956027458629E-16   0.00000000000000E+00   0.00000000000000E+00
      0.00000000000000E+00   0.00000000000000E+00   2.80143806827204E-07  -8.56665614626734E-15   2.80143798260548E-07
     -8.88794568798580E-17  -8.50000000000000E-01  -8.50000000000000E-01   0.00000000000000E+00   0.00000000000000E+00
     -2.80143797977459E-07   2.68466642046168E-11  -2.80116951313254E-07  -3.91204235438009E-16
      7.66666666666667E-01
     -7.66666666666667E-02  -7.66666666666667E-02   0.00000000000000E+00   0.00000000000000E+00   0.00000000000000E+00
      0.00000000000000E+00   0.00000000000000E+00   4.76745567189561E-16   0.00000000000000E+00   0.00000000000000E+00
      0.00000000000000E+00   0.00000000000000E+00   2.96414135062124E-07  -3.66987235653651E-14   2.96414098363401E-07
     -8.82522266339963E-17  -8.50000000000000E-01  -8.50000000000000E-01   0.00000000000000E+00   0.00000000000000E+00
     -2.96414093728578E-07   2.66763008468477E-10  -2.96147330720109E-07  -3.90639649078017E-16
      7.83333333333334E-01
     -7.83333333333334E-02  -7.83333333333334E-02   0.00000000000000E+00   0.00000000000000E+00   0.00000000000000E+00
      0.00000000000000E+00   0.00000000000000E+00   4.75534453086314E-16   0.00000000000000E+00   0.00000000000000E+00
      0.00000000000000E+00   0.00000000000000E+00   3.13618996456359E-07   7.93829798860558E-16   3.13618997250188E-07
     -8.76248741458853E-17  -8.50000000000000E-01  -8.50000000000000E-01   0.00000000000000E+00   0.00000000000000E+00
     -3.13618998159611E-07   3.71941176384856E-10  -3.13247056983227E-07  -3.90074982320228E-16
      8.00000000000001E-01
     -8.00000000000001E-02  -8.00000000000001E-02   0.00000000000000E+00   0.00000000000000E+00   0.00000000000000E+00
      0.00000000000000E+00   0.00000000000000E+00   4.74322679143594E-16   0.00000000000000E+00   0.00000000000000E+00