DF-ISE text

Info {
  version   = 1.0
  type      = xyplot
  datasets  = [
    "time"
    "gate OuterVoltage" "gate InnerVoltage" "gate QuasiFermiPotential" "gate DisplacementCurrent" "gate eCurrent"
    "gate hCurrent" "gate TotalCurrent" "gate Charge" "source OuterVoltage" "source InnerVoltage"
    "source QuasiFermiPotential" "source DisplacementCurrent" "source eCurrent" "source hCurrent" "source TotalCurrent"
    "source Charge" "drain OuterVoltage" "drain InnerVoltage" "drain QuasiFermiPotential" "drain DisplacementCurrent"
    "drain eCurrent" "drain hCurrent" "drain TotalCurrent" "drain Charge" ]
  functions = [
    Time
    OuterVoltage InnerVoltage QuasiFermiPotential DisplacementCurrent eCurrent
    hCurrent TotalCurrent Charge OuterVoltage InnerVoltage
    QuasiFermiPotential DisplacementCurrent eCurrent hCurrent TotalCurrent
    Charge OuterVoltage InnerVoltage QuasiFermiPotential DisplacementCurrent
    eCurrent hCurrent TotalCurrent Charge ]
}

Data {
      0.00000000000000E+00
      0.00000000000000E+00   0.00000000000000E+00   0.00000000000000E+00   0.00000000000000E+00   0.00000000000000E+00
      0.00000000000000E+00   0.00000000000000E+00   5.04148122570271E-16   0.00000000000000E+00   0.00000000000000E+00
      0.00000000000000E+00   0.00000000000000E+00   3.51758766904456E-08   1.81577882222109E-18   3.51758766922614E-08
     -1.10409597344951E-16  -7.50000000000000E-01  -7.50000000000000E-01   0.00000000000000E+00   0.00000000000000E+00
     -3.51758766590970E-08  -3.31516927118016E-17  -3.51758766922486E-08  -3.94923802853870E-16
      1.66666666666667E-02
     -1.25000000000000E-02  -1.25000000000000E-02   0.00000000000000E+00   0.00000000000000E+00   0.00000000000000E+00
      0.00000000000000E+00   0.00000000000000E+00   4.94575299766928E-16   0.00000000000000E+00   0.00000000000000E+00
      0.00000000000000E+00   0.00000000000000E+00   5.50006634746856E-08  -2.74335629100974E-13   5.50003891390565E-08
     -1.05413641216462E-16  -7.50000000000000E-01  -7.50000000000000E-01   0.00000000000000E+00   0.00000000000000E+00
     -5.50006438962560E-08  -3.81022673251936E-14  -5.50006819985233E-08  -3.90367659791059E-16
      3.33333333333333E-02
     -2.50000000000000E-02  -2.50000000000000E-02   0.00000000000000E+00   0.00000000000000E+00   0.00000000000000E+00
      0.00000000000000E+00   0.00000000000000E+00   4.84969135097181E-16   0.00000000000000E+00   0.00000000000000E+00
      0.00000000000000E+00   0.00000000000000E+00   8.59160044467543E-08   7.88818468825047E-17   8.59160045256361E-08
     -1.00398169073106E-16  -7.50000000000000E-01  -7.50000000000000E-01   0.00000000000000E+00   0.00000000000000E+00
     -8.59160045862643E-08   6.05924377885895E-17  -8.59160045256718E-08  -3.85805039179353E-16
      5.00000000000000E-02
     -3.75000000000000E-02  -3.75000000000000E-02   0.00000000000000E+00   0.00000000000000E+00   0.00000000000000E+00
      0.00000000000000E+00   0.00000000000000E+00   4.75326303084994E-16   0.00000000000000E+00   0.00000000000000E+00
      0.00000000000000E+00   0.00000000000000E+00   1.34059547808509E-07   2.88010464444759E-15   1.34059550688614E-07
     -9.53625158435695E-17  -7.50000000000000E-01  -7.50000000000000E-01   0.00000000000000E+00   0.00000000000000E+00
     -1.34059563599254E-07   9.48678450761300E-15  -1.34059554112469E-07  -3.81235985400835E-16
      6.66666666666667E-02
     -5.00000000000000E-02  -5.00000000000000E-02   0.00000000000000E+00   0.00000000000000E+00   0.00000000000000E+00
      0.00000000000000E+00   0.00000000000000E+00   4.65642733550377E-16   0.00000000000000E+00   0.00000000000000E+00
      0.00000000000000E+00   0.00000000000000E+00   2.08908957756654E-07   4.67933849269444E-19   2.08908957757122E-07
     -9.03063014539832E-17  -7.50000000000000E-01  -7.50000000000000E-01   0.00000000000000E+00   0.00000000000000E+00
     -2.08908957744348E-07  -1.28444479570593E-17  -2.08908957757192E-07  -3.76660540933951E-16
      8.33333333333333E-02
     -6.25000000000000E-02  -6.25000000000000E-02   0.00000000000000E+00   0.00000000000000E+00   0.00000000000000E+00
      0.00000000000000E+00   0.00000000000000E+00   4.55913307114536E-16   0.00000000000000E+00   0.00000000000000E+00
      0.00000000000000E+00   0.00000000000000E+00   3.25047409049402E-07   2.19018961508219E-15   3.25047411239591E-07
     -8.52295301631850E-17  -7.50000000000000E-01  -7.50000000000000E-01   0.00000000000000E+00   0.00000000000000E+00
     -3.25047417314224E-07   4.20234731058713E-15  -3.25047413111877E-07  -3.72078745273625E-16
      1.00000000000000E-01
     -7.50000000000000E-02  -7.50000000000000E-02   0.00000000000000E+00   0.00000000000000E+00   0.00000000000000E+00
      0.00000000000000E+00   0.00000000000000E+00   4.46131415333299E-16   0.00000000000000E+00   0.00000000000000E+00
      0.00000000000000E+00   0.00000000000000E+00   5.04812326473574E-07  -9.43419907877980E-17   5.04812326379232E-07
     -8.01327078439440E-17  -7.50000000000000E-01  -7.50000000000000E-01   0.00000000000000E+00   0.00000000000000E+00
     -5.04812320439916E-07  -7.63990273477247E-15  -5.04812328079818E-07  -3.67490632839852E-16
      1.16666666666667E-01
     -8.75000000000000E-02  -8.75000000000000E-02   0.00000000000000E+00   0.00000000000000E+00   0.00000000000000E+00
      0.00000000000000E+00   0.00000000000000E+00   4.36288337595404E-16   0.00000000000000E+00   0.00000000000000E+00
      0.00000000000000E+00   0.00000000000000E+00   7.82216997583197E-07  -4.95543762981723E-15   7.82216992627759E-07
     -7.50169787209057E-17  -7.50000000000000E-01  -7.50000000000000E-01   0.00000000000000E+00   0.00000000000000E+00
     -7.82216997431426E-07   3.58649820627434E-15  -7.82216993844927E-07  -3.62896229167855E-16
      1.33333333333333E-01
     -1.00000000000000E-01  -1.00000000000000E-01   0.00000000000000E+00   0.00000000000000E+00   0.00000000000000E+00
      0.00000000000000E+00   0.00000000000000E+00   4.26372380427296E-16   0.00000000000000E+00   0.00000000000000E+00
      0.00000000000000E+00   0.00000000000000E+00   1.20865373096912E-06  -2.61674014065483E-15   1.20865372835238E-06
     -6.98842809070855E-17  -7.50000000000000E-01  -7.50000000000000E-01   0.00000000000000E+00   0.00000000000000E+00
     -1.20865373008649E-06   4.84305357492371E-16  -1.20865372960218E-06  -3.58295544397941E-16
      1.50000000000000E-01
     -1.12500000000000E-01  -1.12500000000000E-01   0.00000000000000E+00   0.00000000000000E+00   0.00000000000000E+00
      0.00000000000000E+00   0.00000000000000E+00   4.16367728135960E-16   0.00000000000000E+00   0.00000000000000E+00
      0.00000000000000E+00   0.00000000000000E+00   1.86098394345442E-06  -5.32763785862278E-15   1.86098393812678E-06
     -6.47375154446708E-17  -7.50000000000000E-01  -7.50000000000000E-01   0.00000000000000E+00   0.00000000000000E+00
     -1.86098394323351E-06   2.85249008718024E-16  -1.86098394294826E-06  -3.53688562756705E-16
      1.66666666666667E-01
     -1.25000000000000E-01  -1.25000000000000E-01   0.00000000000000E+00   0.00000000000000E+00   0.00000000000000E+00
      0.00000000000000E+00   0.00000000000000E+00   4.06252978559519E-16   0.00000000000000E+00   0.00000000000000E+00
      0.00000000000000E+00   0.00000000000000E+00   2.85262579647894E-06  -2.15013339287074E-14   2.85262577497761E-06
     -5.95807150763343E-17  -7.50000000000000E-01  -7.50000000000000E-01   0.00000000000000E+00   0.00000000000000E+00
     -2.85262579610907E-06   1.81010150511562E-18  -2.85262579610726E-06  -3.49075226190442E-16
      1.83333333333333E-01
     -1.37500000000000E-01  -1.37500000000000E-01   0.00000000000000E+00   0.00000000000000E+00   0.00000000000000E+00
      0.00000000000000E+00   0.00000000000000E+00   3.95999399975114E-16   0.00000000000000E+00   0.00000000000000E+00
      0.00000000000000E+00   0.00000000000000E+00   4.34805167240542E-06  -7.36251248100104E-14   4.34805159878029E-06
     -5.44191859384146E-17  -7.50000000000000E-01  -7.50000000000000E-01   0.00000000000000E+00   0.00000000000000E+00
     -4.34805167313129E-06   7.79145672805504E-16  -4.34805167235215E-06  -3.44455409675538E-16
      2.00000000000000E-01
     -1.50000000000000E-01  -1.50000000000000E-01   0.00000000000000E+00   0.00000000000000E+00   0.00000000000000E+00
      0.00000000000000E+00   0.00000000000000E+00   3.85569054200933E-16   0.00000000000000E+00   0.00000000000000E+00
      0.00000000000000E+00   0.00000000000000E+00   6.58060781535439E-06  -2.13848289984181E-13   6.58060760150610E-06
     -4.92595795836207E-17  -7.50000000000000E-01  -7.50000000000000E-01   0.00000000000000E+00   0.00000000000000E+00
     -6.58060781585246E-06   5.81071228888772E-16  -6.58060781527139E-06  -3.39828885296201E-16
      2.16666666666667E-01
     -1.62500000000000E-01  -1.62500000000000E-01   0.00000000000000E+00   0.00000000000000E+00   0.00000000000000E+00
      0.00000000000000E+00   0.00000000000000E+00   3.74913055068322E-16   0.00000000000000E+00   0.00000000000000E+00
      0.00000000000000E+00   0.00000000000000E+00   9.87292264944333E-06  -5.39555929317074E-13   9.87292210988740E-06
     -4.41098421452030E-17  -7.50000000000000E-01  -7.50000000000000E-01   0.00000000000000E+00   0.00000000000000E+00
     -9.87292264884152E-06   7.07292241364366E-17  -9.87292264877079E-06  -3.35195271868600E-16
      2.33333333333333E-01
     -1.75000000000000E-01  -1.75000000000000E-01   0.00000000000000E+00   0.00000000000000E+00   0.00000000000000E+00
      0.00000000000000E+00   0.00000000000000E+00   3.63970217889635E-16   0.00000000000000E+00   0.00000000000000E+00
      0.00000000000000E+00   0.00000000000000E+00   1.46594797404316E-05  -1.19655412516059E-12   1.46594785438774E-05
     -3.89790008274540E-17  -7.50000000000000E-01  -7.50000000000000E-01   0.00000000000000E+00   0.00000000000000E+00
     -1.46594797388729E-05  -1.88353968783477E-15  -1.46594797407565E-05  -3.30553965280023E-16
      2.50000000000000E-01
     -1.87500000000000E-01  -1.87500000000000E-01   0.00000000000000E+00   0.00000000000000E+00   0.00000000000000E+00
      0.00000000000000E+00   0.00000000000000E+00   3.52665730287825E-16   0.00000000000000E+00   0.00000000000000E+00
      0.00000000000000E+00   0.00000000000000E+00   2.15162772019953E-05  -2.35485877851353E-12   2.15162748471365E-05
     -3.38768211234258E-17  -7.50000000000000E-01  -7.50000000000000E-01   0.00000000000000E+00   0.00000000000000E+00
     -2.15162771975393E-05  -3.16356215814851E-15  -2.15162772007029E-05  -3.25904035043246E-16
      2.66666666666667E-01
     -2.00000000000000E-01  -2.00000000000000E-01   0.00000000000000E+00   0.00000000000000E+00   0.00000000000000E+00
      0.00000000000000E+00   0.00000000000000E+00   3.40906505129362E-16   0.00000000000000E+00   0.00000000000000E+00
      0.00000000000000E+00   0.00000000000000E+00   3.12295837315813E-05  -4.13317604884028E-12   3.12295795984052E-05
     -2.88135900361045E-17  -7.50000000000000E-01  -7.50000000000000E-01   0.00000000000000E+00   0.00000000000000E+00
     -3.12295837325618E-05   1.31085945069039E-15  -3.12295837312509E-05  -3.21244023135952E-16
      2.83333333333333E-01
     -2.12500000000000E-01  -2.12500000000000E-01   0.00000000000000E+00   0.00000000000000E+00   0.00000000000000E+00
      0.00000000000000E+00   0.00000000000000E+00   3.28555276523175E-16   0.00000000000000E+00   0.00000000000000E+00
      0.00000000000000E+00   0.00000000000000E+00   4.50751061930497E-05  -2.11944571144083E-11   4.50750849985926E-05
     -2.38011664857489E-17  -7.50000000000000E-01  -7.50000000000000E-01   0.00000000000000E+00   0.00000000000000E+00
     -4.50751061929487E-05  -5.76926275616226E-14  -4.50751062506413E-05  -3.16571309933957E-16
      3.00000000000000E-01
     -2.25000000000000E-01  -2.25000000000000E-01   0.00000000000000E+00   0.00000000000000E+00   0.00000000000000E+00
      0.00000000000000E+00   0.00000000000000E+00   3.15855221707937E-16   0.00000000000000E+00   0.00000000000000E+00
      0.00000000000000E+00   0.00000000000000E+00   6.07922806337173E-05  -3.97029938095578E-16   6.07922806333202E-05
     -1.88368874970867E-17  -7.50000000000000E-01  -7.50000000000000E-01   0.00000000000000E+00   0.00000000000000E+00
     -6.07922806334134E-05  -9.13469726440822E-17  -6.07922806335047E-05  -3.11888912656054E-16
      3.16666666666667E-01
     -2.37500000000000E-01  -2.37500000000000E-01   0.00000000000000E+00   0.00000000000000E+00   0.00000000000000E+00
      0.00000000000000E+00   0.00000000000000E+00   3.02969811772127E-16   0.00000000000000E+00   0.00000000000000E+00
      0.00000000000000E+00   0.00000000000000E+00   7.72925963069116E-05  -9.57925149737477E-12   7.72925867276601E-05
     -1.38859839162835E-17  -7.50000000000000E-01  -7.50000000000000E-01   0.00000000000000E+00   0.00000000000000E+00
     -7.72925963249738E-05  -3.91015697444872E-13  -7.72925967159895E-05  -3.07198665263944E-16
      3.33333333333333E-01
     -2.50000000000000E-01  -2.50000000000000E-01   0.00000000000000E+00   0.00000000000000E+00   0.00000000000000E+00
      0.00000000000000E+00   0.00000000000000E+00   2.89600642791540E-16   0.00000000000000E+00   0.00000000000000E+00
      0.00000000000000E+00   0.00000000000000E+00   9.66561111974786E-05  -5.84000101288880E-12   9.66561053574776E-05
     -8.98692667097683E-18  -7.50000000000000E-01  -7.50000000000000E-01   0.00000000000000E+00   0.00000000000000E+00
     -9.66561111883154E-05  -4.55458612255738E-15  -9.66561111928700E-05  -3.02496986503355E-16
      3.50000000000000E-01
     -2.62500000000000E-01  -2.62500000000000E-01   0.00000000000000E+00   0.00000000000000E+00   0.00000000000000E+00
      0.00000000000000E+00   0.00000000000000E+00   2.75762535195898E-16   0.00000000000000E+00   0.00000000000000E+00
      0.00000000000000E+00   0.00000000000000E+00   1.18908039188363E-04  -4.68801825348721E-12   1.18908034500344E-04
     -4.13808850125485E-18  -7.50000000000000E-01  -7.50000000000000E-01   0.00000000000000E+00   0.00000000000000E+00
     -1.18908039203169E-04   2.35736400626485E-15  -1.18908039200812E-04  -2.97783073623590E-16
      3.66666666666667E-01
     -2.75000000000000E-01  -2.75000000000000E-01   0.00000000000000E+00   0.00000000000000E+00   0.00000000000000E+00
      0.00000000000000E+00   0.00000000000000E+00   2.61431649136071E-16   0.00000000000000E+00   0.00000000000000E+00
      0.00000000000000E+00   0.00000000000000E+00   1.43726048940715E-04  -4.50769856799758E-12   1.43726044433017E-04
      6.60730629081872E-19  -7.50000000000000E-01  -7.50000000000000E-01   0.00000000000000E+00   0.00000000000000E+00
     -1.43726048998563E-04   4.64852488272623E-14  -1.43726048952078E-04  -2.93058180999118E-16
      3.83333333333333E-01
     -2.87500000000000E-01  -2.87500000000000E-01   0.00000000000000E+00   0.00000000000000E+00   0.00000000000000E+00
      0.00000000000000E+00   0.00000000000000E+00   2.46666569665965E-16   0.00000000000000E+00   0.00000000000000E+00
      0.00000000000000E+00   0.00000000000000E+00   1.71372635807220E-04  -1.98147626566119E-12   1.71372633825744E-04
      5.41311259316831E-18  -7.50000000000000E-01  -7.50000000000000E-01   0.00000000000000E+00   0.00000000000000E+00
     -1.71372635805213E-04   1.24877139852591E-14  -1.71372635792725E-04  -2.88319741948827E-16
      4.00000000000000E-01
     -3.00000000000000E-01  -3.00000000000000E-01   0.00000000000000E+00   0.00000000000000E+00   0.00000000000000E+00
      0.00000000000000E+00   0.00000000000000E+00   2.31430088952135E-16   0.00000000000000E+00   0.00000000000000E+00
      0.00000000000000E+00   0.00000000000000E+00   2.01404351441185E-04  -2.10339241744910E-12   2.01404349337793E-04
      1.01192958880245E-17  -7.50000000000000E-01  -7.50000000000000E-01   0.00000000000000E+00   0.00000000000000E+00
     -2.01404351485058E-04   5.98003563837035E-15  -2.01404351479078E-04  -2.83570390769873E-16
      4.16666666666667E-01
     -3.12500000000000E-01  -3.12500000000000E-01   0.00000000000000E+00   0.00000000000000E+00   0.00000000000000E+00
      0.00000000000000E+00   0.00000000000000E+00   2.15769441648516E-16   0.00000000000000E+00   0.00000000000000E+00
      0.00000000000000E+00   0.00000000000000E+00   2.33819447145465E-04  -1.10316517001028E-12   2.33819446042299E-04
      1.47832014489270E-17  -7.50000000000000E-01  -7.50000000000000E-01   0.00000000000000E+00   0.00000000000000E+00
     -2.33819447146279E-04   3.09872389310207E-15  -2.33819447143181E-04  -2.78808357917390E-16
      4.33333333333333E-01
     -3.25000000000000E-01  -3.25000000000000E-01   0.00000000000000E+00   0.00000000000000E+00   0.00000000000000E+00
      0.00000000000000E+00   0.00000000000000E+00   1.99734113435479E-16   0.00000000000000E+00   0.00000000000000E+00
      0.00000000000000E+00   0.00000000000000E+00   2.68657944004668E-04  -8.46435243538248E-13   2.68657943158233E-04
      1.94081690566888E-17  -7.50000000000000E-01  -7.50000000000000E-01   0.00000000000000E+00   0.00000000000000E+00
     -2.68657943999663E-04  -1.11897055252862E-15  -2.68657944000782E-04  -2.74032052765276E-16
      4.50000000000000E-01
     -3.37500000000000E-01  -3.37500000000000E-01   0.00000000000000E+00   0.00000000000000E+00   0.00000000000000E+00
      0.00000000000000E+00   0.00000000000000E+00   1.83241486420702E-16   0.00000000000000E+00   0.00000000000000E+00
      0.00000000000000E+00   0.00000000000000E+00   3.05327569083252E-04  -1.10274147663332E-12   3.05327567980510E-04
      2.39944447040780E-17  -7.50000000000000E-01  -7.50000000000000E-01   0.00000000000000E+00   0.00000000000000E+00
     -3.05327569084326E-04   2.41904557639024E-14  -3.05327569060135E-04  -2.69247284223459E-16
      4.66666666666667E-01
     -3.50000000000000E-01  -3.50000000000000E-01   0.00000000000000E+00   0.00000000000000E+00   0.00000000000000E+00
      0.00000000000000E+00   0.00000000000000E+00   1.66414743804855E-16   0.00000000000000E+00   0.00000000000000E+00
      0.00000000000000E+00   0.00000000000000E+00   3.44061414648482E-04  -5.53896802986871E-13   3.44061414094585E-04
      2.85462951845638E-17  -7.50000000000000E-01  -7.50000000000000E-01   0.00000000000000E+00   0.00000000000000E+00
     -3.44061414648449E-04  -2.51136530992628E-15  -3.44061414650960E-04  -2.64447812922020E-16
      4.83333333333333E-01
     -3.62500000000000E-01  -3.62500000000000E-01   0.00000000000000E+00   0.00000000000000E+00   0.00000000000000E+00
      0.00000000000000E+00   0.00000000000000E+00   1.49273686479955E-16   0.00000000000000E+00   0.00000000000000E+00
      0.00000000000000E+00   0.00000000000000E+00   3.84742328111380E-04  -4.67474445188084E-13   3.84742327643906E-04
      3.30660721483122E-17  -7.50000000000000E-01  -7.50000000000000E-01   0.00000000000000E+00   0.00000000000000E+00
     -3.84742328116523E-04   1.86755934284711E-15  -3.84742328114656E-04  -2.59633750789167E-16
      5.00000000000000E-01
     -3.75000000000000E-01  -3.75000000000000E-01   0.00000000000000E+00   0.00000000000000E+00   0.00000000000000E+00
      0.00000000000000E+00   0.00000000000000E+00   1.31732606893738E-16   0.00000000000000E+00   0.00000000000000E+00
      0.00000000000000E+00   0.00000000000000E+00   4.26894795294364E-04  -5.31843350892122E-13   4.26894794762521E-04
      3.75545643912806E-17  -7.50000000000000E-01  -7.50000000000000E-01   0.00000000000000E+00   0.00000000000000E+00
     -4.26894795251656E-04  -1.04003411183178E-14  -4.26894795262057E-04  -2.54812722544300E-16
      5.16666666666667E-01
     -3.87500000000000E-01  -3.87500000000000E-01   0.00000000000000E+00   0.00000000000000E+00   0.00000000000000E+00
      0.00000000000000E+00   0.00000000000000E+00   1.13879865535690E-16   0.00000000000000E+00   0.00000000000000E+00
      0.00000000000000E+00   0.00000000000000E+00   4.70585798585809E-04  -3.21290051272530E-13   4.70585798264519E-04
      4.20148091551399E-17  -7.50000000000000E-01  -7.50000000000000E-01   0.00000000000000E+00   0.00000000000000E+00
     -4.70585798586000E-04  -2.01709235243505E-15  -4.70585798588017E-04  -2.49979137263296E-16
      5.33333333333333E-01
     -4.00000000000000E-01  -4.00000000000000E-01   0.00000000000000E+00   0.00000000000000E+00   0.00000000000000E+00
      0.00000000000000E+00   0.00000000000000E+00   9.57915171459628E-17   0.00000000000000E+00   0.00000000000000E+00
      0.00000000000000E+00   0.00000000000000E+00   5.15878546753085E-04  -2.89310784696392E-13   5.15878546463774E-04
      4.64495813225504E-17  -7.50000000000000E-01  -7.50000000000000E-01   0.00000000000000E+00   0.00000000000000E+00
     -5.15878546752345E-04  -3.73607428125845E-15  -5.15878546756081E-04  -2.45128203792091E-16
      5.50000000000000E-01
     -4.12500000000000E-01  -4.12500000000000E-01   0.00000000000000E+00   0.00000000000000E+00   0.00000000000000E+00
      0.00000000000000E+00   0.00000000000000E+00   7.74119204794457E-17   0.00000000000000E+00   0.00000000000000E+00
      0.00000000000000E+00   0.00000000000000E+00   5.62472689099417E-04  -2.51548424533997E-13   5.62472688847868E-04
      5.08601124226766E-17  -7.50000000000000E-01  -7.50000000000000E-01   0.00000000000000E+00   0.00000000000000E+00
     -5.62472689106832E-04   1.12026591540458E-14  -5.62472689095630E-04  -2.40267364754740E-16
      5.66666666666667E-01
     -4.25000000000000E-01  -4.25000000000000E-01   0.00000000000000E+00   0.00000000000000E+00   0.00000000000000E+00
      0.00000000000000E+00   0.00000000000000E+00   5.87208286568460E-17   0.00000000000000E+00   0.00000000000000E+00
      0.00000000000000E+00   0.00000000000000E+00   6.10153768474215E-04  -2.00439924734023E-13   6.10153768273775E-04
      5.52479174169223E-17  -7.50000000000000E-01  -7.50000000000000E-01   0.00000000000000E+00   0.00000000000000E+00
     -6.10153768491899E-04   1.20157648019212E-14  -6.10153768479883E-04  -2.35399793028283E-16
      5.83333333333333E-01
     -4.37500000000000E-01  -4.37500000000000E-01   0.00000000000000E+00   0.00000000000000E+00   0.00000000000000E+00
      0.00000000000000E+00   0.00000000000000E+00   3.97753100990205E-17   0.00000000000000E+00   0.00000000000000E+00
      0.00000000000000E+00   0.00000000000000E+00   6.58922112280023E-04  -1.67648708957605E-13   6.58922112112374E-04
      5.96151721050761E-17  -7.50000000000000E-01  -7.50000000000000E-01   0.00000000000000E+00   0.00000000000000E+00
     -6.58922112278589E-04   3.52260838918064E-16  -6.58922112278237E-04  -2.30520717578701E-16
      6.00000000000000E-01
     -4.50000000000000E-01  -4.50000000000000E-01   0.00000000000000E+00   0.00000000000000E+00   0.00000000000000E+00
      0.00000000000000E+00   0.00000000000000E+00   2.06404480214797E-17   0.00000000000000E+00   0.00000000000000E+00
      0.00000000000000E+00   0.00000000000000E+00   7.08823080989462E-04  -1.46793869227178E-13   7.08823080842668E-04
      6.39640346018316E-17  -7.50000000000000E-01  -7.50000000000000E-01   0.00000000000000E+00   0.00000000000000E+00
     -7.08823080988781E-04  -1.98317932763336E-16  -7.08823080988979E-04  -2.25624847358316E-16
      6.16666666666667E-01
     -4.62500000000000E-01  -4.62500000000000E-01   0.00000000000000E+00   0.00000000000000E+00   0.00000000000000E+00
      0.00000000000000E+00   0.00000000000000E+00   1.31748052950445E-18   0.00000000000000E+00   0.00000000000000E+00
      0.00000000000000E+00   0.00000000000000E+00   7.59749271015316E-04  -1.23683848739865E-13   7.59749270891632E-04
      6.82959954774621E-17  -7.50000000000000E-01  -7.50000000000000E-01   0.00000000000000E+00   0.00000000000000E+00
     -7.59749271014360E-04   7.13921906793893E-16  -7.59749271013646E-04  -2.20714206573375E-16
      6.33333333333334E-01
     -4.75000000000000E-01  -4.75000000000000E-01   0.00000000000000E+00   0.00000000000000E+00   0.00000000000000E+00
      0.00000000000000E+00   0.00000000000000E+00  -1.82547048053763E-17   0.00000000000000E+00   0.00000000000000E+00
      0.00000000000000E+00   0.00000000000000E+00   8.11440240286035E-04  -1.01706332869666E-13   8.11440240184329E-04
      7.26119553965013E-17  -7.50000000000000E-01  -7.50000000000000E-01   0.00000000000000E+00   0.00000000000000E+00
     -8.11440240290407E-04   6.26545079794906E-15  -8.11440240284142E-04  -2.15799574689564E-16
      6.50000000000000E-01
     -4.87500000000000E-01  -4.87500000000000E-01   0.00000000000000E+00   0.00000000000000E+00   0.00000000000000E+00
      0.00000000000000E+00   0.00000000000000E+00  -3.80434221458904E-17   0.00000000000000E+00   0.00000000000000E+00
      0.00000000000000E+00   0.00000000000000E+00   8.63864976925636E-04  -8.40792472082112E-14   8.63864976841557E-04
      7.69134660542715E-17  -7.50000000000000E-01  -7.50000000000000E-01   0.00000000000000E+00   0.00000000000000E+00
     -8.63864976924916E-04  -8.89482508157217E-16  -8.63864976925806E-04  -2.10877009282929E-16
      6.66666666666667E-01
     -5.00000000000000E-01  -5.00000000000000E-01   0.00000000000000E+00   0.00000000000000E+00   0.00000000000000E+00
      0.00000000000000E+00   0.00000000000000E+00  -5.80218457007095E-17   0.00000000000000E+00   0.00000000000000E+00
      0.00000000000000E+00   0.00000000000000E+00   9.16985189201288E-04  -7.38059365935652E-14   9.16985189127482E-04
      8.12019277123285E-17  -7.50000000000000E-01  -7.50000000000000E-01   0.00000000000000E+00   0.00000000000000E+00
     -9.16985189206769E-04   1.09435370294548E-14  -9.16985189195826E-04  -2.05943795829143E-16
      6.83333333333334E-01
     -5.12500000000000E-01  -5.12500000000000E-01   0.00000000000000E+00   0.00000000000000E+00   0.00000000000000E+00
      0.00000000000000E+00   0.00000000000000E+00  -7.81548216241683E-17   0.00000000000000E+00   0.00000000000000E+00
      0.00000000000000E+00   0.00000000000000E+00   9.70793632522423E-04  -6.07743276967100E-14   9.70793632461649E-04
      8.54787090684851E-17  -7.50000000000000E-01  -7.50000000000000E-01   0.00000000000000E+00   0.00000000000000E+00
     -9.70793632521949E-04  -2.65301642573074E-17  -9.70793632521976E-04  -2.00996349249209E-16
      7.00000000000001E-01
     -5.25000000000000E-01  -5.25000000000000E-01   0.00000000000000E+00   0.00000000000000E+00   0.00000000000000E+00
      0.00000000000000E+00   0.00000000000000E+00  -9.84070366714022E-17   0.00000000000000E+00   0.00000000000000E+00
      0.00000000000000E+00   0.00000000000000E+00   1.02529686017972E-03  -5.21787597534266E-14   1.02529686012754E-03
      8.97451218972025E-17  -7.50000000000000E-01  -7.50000000000000E-01   0.00000000000000E+00   0.00000000000000E+00
     -1.02529686017873E-03  -4.90284230821276E-16  -1.02529686017922E-03  -1.96030785657158E-16
      7.16666666666667E-01
     -5.37500000000000E-01  -5.37500000000000E-01   0.00000000000000E+00   0.00000000000000E+00   0.00000000000000E+00
      0.00000000000000E+00   0.00000000000000E+00  -1.18836092252058E-16   0.00000000000000E+00   0.00000000000000E+00
      0.00000000000000E+00   0.00000000000000E+00   1.08029016378809E-03  -4.23129292443398E-14   1.08029016374577E-03
      9.40017340396027E-17  -7.50000000000000E-01  -7.50000000000000E-01   0.00000000000000E+00   0.00000000000000E+00
     -1.08029016378862E-03   7.66870395235065E-15  -1.08029016378095E-03  -1.91062067359678E-16
      7.33333333333334E-01
     -5.50000000000000E-01  -5.50000000000000E-01   0.00000000000000E+00   0.00000000000000E+00   0.00000000000000E+00
      0.00000000000000E+00   0.00000000000000E+00  -1.39435529151756E-16   0.00000000000000E+00   0.00000000000000E+00
      0.00000000000000E+00   0.00000000000000E+00   1.13571188187254E-03  -3.58985541865697E-14   1.13571188183664E-03
      9.82494325097178E-17  -7.50000000000000E-01  -7.50000000000000E-01   0.00000000000000E+00   0.00000000000000E+00
     -1.13571188186948E-03  -9.50668938210623E-16  -1.13571188187043E-03  -1.86089912559215E-16
      7.50000000000001E-01
     -5.62500000000000E-01  -5.62500000000000E-01   0.00000000000000E+00   0.00000000000000E+00   0.00000000000000E+00
      0.00000000000000E+00   0.00000000000000E+00  -1.60183303568507E-16   0.00000000000000E+00   0.00000000000000E+00
      0.00000000000000E+00   0.00000000000000E+00   1.19154412002081E-03  -3.02299188286394E-14   1.19154411999058E-03
      1.02489240768178E-16  -7.50000000000000E-01  -7.50000000000000E-01   0.00000000000000E+00   0.00000000000000E+00
     -1.19154412001926E-03   9.72985987802522E-15  -1.19154412000953E-03  -1.81110520111065E-16
      7.66666666666667E-01
     -5.75000000000001E-01  -5.75000000000001E-01   0.00000000000000E+00   0.00000000000000E+00   0.00000000000000E+00
      0.00000000000000E+00   0.00000000000000E+00  -1.81064415094941E-16   0.00000000000000E+00   0.00000000000000E+00
      0.00000000000000E+00   0.00000000000000E+00   1.24775517662871E-03  -2.52966177966275E-14   1.24775517660341E-03
      1.06721996019266E-16  -7.50000000000000E-01  -7.50000000000000E-01   0.00000000000000E+00   0.00000000000000E+00
     -1.24775517662809E-03   2.19570378111825E-15  -1.24775517662589E-03  -1.76122042449310E-16
      7.83333333333334E-01
     -5.87500000000001E-01  -5.87500000000001E-01   0.00000000000000E+00   0.00000000000000E+00   0.00000000000000E+00
      0.00000000000000E+00   0.00000000000000E+00  -2.02065084231630E-16   0.00000000000000E+00   0.00000000000000E+00
      0.00000000000000E+00   0.00000000000000E+00   1.30431538707350E-03  -2.09073620940320E-14   1.30431538705260E-03
      1.10948464821852E-16  -7.50000000000000E-01  -7.50000000000000E-01   0.00000000000000E+00   0.00000000000000E+00
     -1.30431538707306E-03   2.07442100780323E-16  -1.30431538707285E-03  -1.71122949620557E-16
      8.00000000000001E-01
     -6.00000000000001E-01  -6.00000000000001E-01   0.00000000000000E+00   0.00000000000000E+00   0.00000000000000E+00
      0.00000000000000E+00   0.00000000000000E+00  -2.23162284048266E-16   0.00000000000000E+00   0.00000000000000E+00