DF-ISE text

Info {
  version   = 1.0
  type      = xyplot
  datasets  = [
    "time"
    "gate OuterVoltage" "gate InnerVoltage" "gate QuasiFermiPotential" "gate DisplacementCurrent" "gate eCurrent"
    "gate hCurrent" "gate TotalCurrent" "gate Charge" "source OuterVoltage" "source InnerVoltage"
    "source QuasiFermiPotential" "source DisplacementCurrent" "source eCurrent" "source hCurrent" "source TotalCurrent"
    "source Charge" "drain OuterVoltage" "drain InnerVoltage" "drain QuasiFermiPotential" "drain DisplacementCurrent"
    "drain eCurrent" "drain hCurrent" "drain TotalCurrent" "drain Charge" ]
  functions = [
    Time
    OuterVoltage InnerVoltage QuasiFermiPotential DisplacementCurrent eCurrent
    hCurrent TotalCurrent Charge OuterVoltage InnerVoltage
    QuasiFermiPotential DisplacementCurrent eCurrent hCurrent TotalCurrent
    Charge OuterVoltage InnerVoltage QuasiFermiPotential DisplacementCurrent
    eCurrent hCurrent TotalCurrent Charge ]
}

Data {
      0.00000000000000E+00
      0.00000000000000E+00   0.00000000000000E+00   0.00000000000000E+00   0.00000000000000E+00   0.00000000000000E+00
      0.00000000000000E+00   0.00000000000000E+00   5.15488155532210E-16   0.00000000000000E+00   0.00000000000000E+00
      0.00000000000000E+00   0.00000000000000E+00   6.82402329439302E-08  -1.27553811528417E-17   6.82402329311748E-08
     -1.08554853853843E-16  -8.00000000000000E-01  -8.00000000000000E-01   0.00000000000000E+00   0.00000000000000E+00
     -6.82402329591431E-08   2.79747767269227E-17  -6.82402329311684E-08  -4.08144686409519E-16
      1.66666666666667E-02
     -1.33333333333333E-02  -1.33333333333333E-02   0.00000000000000E+00   0.00000000000000E+00   0.00000000000000E+00
      0.00000000000000E+00   0.00000000000000E+00   5.05411522939095E-16   0.00000000000000E+00   0.00000000000000E+00
      0.00000000000000E+00   0.00000000000000E+00   1.07690005596215E-07  -4.33800958317856E-13   1.07689571795257E-07
     -1.03291408109046E-16  -8.00000000000000E-01  -8.00000000000000E-01   0.00000000000000E+00   0.00000000000000E+00
     -1.07689976091813E-07  -1.06348619556252E-14  -1.07689986726675E-07  -4.03362344892541E-16
      3.33333333333333E-02
     -2.66666666666667E-02  -2.66666666666667E-02   0.00000000000000E+00   0.00000000000000E+00   0.00000000000000E+00
      0.00000000000000E+00   0.00000000000000E+00   4.95296489901142E-16   0.00000000000000E+00   0.00000000000000E+00
      0.00000000000000E+00   0.00000000000000E+00   1.69654219752787E-07  -2.12649472919038E-12   1.69652093258058E-07
     -9.80078667827117E-17  -8.00000000000000E-01  -8.00000000000000E-01   0.00000000000000E+00   0.00000000000000E+00
     -1.69654155554602E-07  -5.96672260053823E-14  -1.69654215221828E-07  -3.98573065953053E-16
      5.00000000000000E-02
     -4.00000000000000E-02  -4.00000000000000E-02   0.00000000000000E+00   0.00000000000000E+00   0.00000000000000E+00
      0.00000000000000E+00   0.00000000000000E+00   4.85138604470410E-16   0.00000000000000E+00   0.00000000000000E+00
      0.00000000000000E+00   0.00000000000000E+00   2.66734349058658E-07  -4.21013136204145E-15   2.66734344848527E-07
     -9.27040275173759E-17  -8.00000000000000E-01  -8.00000000000000E-01   0.00000000000000E+00   0.00000000000000E+00
     -2.66734365511073E-07   1.64467608828169E-14  -2.66734349064312E-07  -3.93776924412674E-16
      6.66666666666667E-02
     -5.33333333333333E-02  -5.33333333333333E-02   0.00000000000000E+00   0.00000000000000E+00   0.00000000000000E+00
      0.00000000000000E+00   0.00000000000000E+00   4.74932211856467E-16   0.00000000000000E+00   0.00000000000000E+00
      0.00000000000000E+00   0.00000000000000E+00   4.18361785689247E-07  -1.52901977510331E-15   4.18361784160227E-07
     -8.73801539027622E-17  -8.00000000000000E-01  -8.00000000000000E-01   0.00000000000000E+00   0.00000000000000E+00
     -4.18361789919615E-07   3.51614759816976E-15  -4.18361786403468E-07  -3.88974005426141E-16
      8.33333333333333E-02
     -6.66666666666667E-02  -6.66666666666667E-02   0.00000000000000E+00   0.00000000000000E+00   0.00000000000000E+00
      0.00000000000000E+00   0.00000000000000E+00   4.64669957030183E-16   0.00000000000000E+00   0.00000000000000E+00
      0.00000000000000E+00   0.00000000000000E+00   6.54286683186304E-07   1.71074920845841E-17   6.54286683203412E-07
     -8.20371162588080E-17  -8.00000000000000E-01  -8.00000000000000E-01   0.00000000000000E+00   0.00000000000000E+00
     -6.54286683191186E-07  -1.23512454822726E-17  -6.54286683203537E-07  -3.84164408529161E-16
      1.00000000000000E-01
     -8.00000000000000E-02  -8.00000000000000E-02   0.00000000000000E+00   0.00000000000000E+00   0.00000000000000E+00
      0.00000000000000E+00   0.00000000000000E+00   4.54342099117810E-16   0.00000000000000E+00   0.00000000000000E+00
      0.00000000000000E+00   0.00000000000000E+00   1.01963608279387E-06  -7.25076493318121E-16   1.01963608206879E-06
     -7.66765549645356E-17  -8.00000000000000E-01  -8.00000000000000E-01   0.00000000000000E+00   0.00000000000000E+00
     -1.01963608266210E-06  -1.85114054650348E-16  -1.01963608284722E-06  -3.79348252989293E-16
      1.16666666666667E-01
     -9.33333333333333E-02  -9.33333333333333E-02   0.00000000000000E+00   0.00000000000000E+00   0.00000000000000E+00
      0.00000000000000E+00   0.00000000000000E+00   4.43935598857906E-16   0.00000000000000E+00   0.00000000000000E+00
      0.00000000000000E+00   0.00000000000000E+00   1.58203068414609E-06  -2.67972525089701E-15   1.58203068146637E-06
     -7.13010596683519E-17  -8.00000000000000E-01  -8.00000000000000E-01   0.00000000000000E+00   0.00000000000000E+00
     -1.58203068370625E-06  -4.45237964689599E-16  -1.58203068415149E-06  -3.74525683968086E-16
      1.33333333333333E-01
     -1.06666666666667E-01  -1.06666666666667E-01   0.00000000000000E+00   0.00000000000000E+00   0.00000000000000E+00
      0.00000000000000E+00   0.00000000000000E+00   4.33432970425644E-16   0.00000000000000E+00   0.00000000000000E+00
      0.00000000000000E+00   0.00000000000000E+00   2.44118064610599E-06  -1.45662108537134E-14   2.44118063153978E-06
     -6.59143510609953E-17  -8.00000000000000E-01  -8.00000000000000E-01   0.00000000000000E+00   0.00000000000000E+00
     -2.44118064557806E-06  -2.87629979031563E-16  -2.44118064586569E-06  -3.69696878894558E-16
      1.50000000000000E-01
     -1.20000000000000E-01  -1.20000000000000E-01   0.00000000000000E+00   0.00000000000000E+00   0.00000000000000E+00
      0.00000000000000E+00   0.00000000000000E+00   4.22810951828613E-16   0.00000000000000E+00   0.00000000000000E+00
      0.00000000000000E+00   0.00000000000000E+00   3.74105395727079E-06  -5.59832471250863E-14   3.74105390128754E-06
     -6.05214367722040E-17  -8.00000000000000E-01  -8.00000000000000E-01   0.00000000000000E+00   0.00000000000000E+00
     -3.74105395703567E-06   3.26003583463388E-16  -3.74105395670967E-06  -3.64862052355133E-16
      1.66666666666667E-01
     -1.33333333333333E-01  -1.33333333333333E-01   0.00000000000000E+00   0.00000000000000E+00   0.00000000000000E+00
      0.00000000000000E+00   0.00000000000000E+00   4.12039160203040E-16   0.00000000000000E+00   0.00000000000000E+00
      0.00000000000000E+00   0.00000000000000E+00   5.68397846292483E-06  -1.71610311288719E-13   5.68397829131452E-06
     -5.51286945951922E-17  -8.00000000000000E-01  -8.00000000000000E-01   0.00000000000000E+00   0.00000000000000E+00
     -5.68397846172284E-06  -3.45433971302076E-16  -5.68397846206827E-06  -3.60021456431492E-16
      1.83333333333333E-01
     -1.46666666666667E-01  -1.46666666666667E-01   0.00000000000000E+00   0.00000000000000E+00   0.00000000000000E+00
      0.00000000000000E+00   0.00000000000000E+00   4.01079042074021E-16   0.00000000000000E+00   0.00000000000000E+00
      0.00000000000000E+00   0.00000000000000E+00   8.54491355498456E-06  -4.46647532710371E-13   8.54491310833703E-06
     -4.97438211516474E-17  -8.00000000000000E-01  -8.00000000000000E-01   0.00000000000000E+00   0.00000000000000E+00
     -8.54491355514954E-06   7.91359765715512E-16  -8.54491355435818E-06  -3.55175371965328E-16
      2.00000000000000E-01
     -1.60000000000000E-01  -1.60000000000000E-01   0.00000000000000E+00   0.00000000000000E+00   0.00000000000000E+00
      0.00000000000000E+00   0.00000000000000E+00   3.89883514867114E-16   0.00000000000000E+00   0.00000000000000E+00
      0.00000000000000E+00   0.00000000000000E+00   1.26831811675656E-05  -1.01198174754702E-12   1.26831801555838E-05
     -4.43755896723812E-17  -8.00000000000000E-01  -8.00000000000000E-01   0.00000000000000E+00   0.00000000000000E+00
     -1.26831811673068E-05  -2.82848987323936E-16  -1.26831811675897E-05  -3.50324085561430E-16
      2.16666666666667E-01
     -1.73333333333333E-01  -1.73333333333333E-01   0.00000000000000E+00   0.00000000000000E+00   0.00000000000000E+00
      0.00000000000000E+00   0.00000000000000E+00   3.78397512024471E-16   0.00000000000000E+00   0.00000000000000E+00
      0.00000000000000E+00   0.00000000000000E+00   1.85499289202048E-05  -2.00912132118951E-12   1.85499269110835E-05
     -3.90334128020232E-17  -8.00000000000000E-01  -8.00000000000000E-01   0.00000000000000E+00   0.00000000000000E+00
     -1.85499289210524E-05  -3.12981879580000E-16  -1.85499289213654E-05  -3.45467848667590E-16
      2.33333333333333E-01
     -1.86666666666667E-01  -1.86666666666667E-01   0.00000000000000E+00   0.00000000000000E+00   0.00000000000000E+00
      0.00000000000000E+00   0.00000000000000E+00   3.66558798847824E-16   0.00000000000000E+00   0.00000000000000E+00
      0.00000000000000E+00   0.00000000000000E+00   2.66964099011463E-05  -3.52282503181966E-12   2.66964063783212E-05
     -3.37268330702268E-17  -8.00000000000000E-01  -8.00000000000000E-01   0.00000000000000E+00   0.00000000000000E+00
     -2.66964099004765E-05  -1.16772804657208E-15  -2.66964099016442E-05  -3.40606819501086E-16
      2.50000000000000E-01
     -2.00000000000000E-01  -2.00000000000000E-01   0.00000000000000E+00   0.00000000000000E+00   0.00000000000000E+00
      0.00000000000000E+00   0.00000000000000E+00   3.54295900001213E-16   0.00000000000000E+00   0.00000000000000E+00
      0.00000000000000E+00   0.00000000000000E+00   3.78118244529940E-05  -5.59937607897462E-12   3.78118188536179E-05
     -2.84653240853658E-17  -8.00000000000000E-01  -8.00000000000000E-01   0.00000000000000E+00   0.00000000000000E+00
     -3.78118244589600E-05   2.86509051056546E-15  -3.78118244560950E-05  -3.35740994021577E-16
      2.66666666666667E-01
     -2.13333333333333E-01  -2.13333333333333E-01   0.00000000000000E+00   0.00000000000000E+00   0.00000000000000E+00
      0.00000000000000E+00   0.00000000000000E+00   3.41508623205985E-16   0.00000000000000E+00   0.00000000000000E+00
      0.00000000000000E+00   0.00000000000000E+00   5.29321148893348E-05  -8.92615784207075E-12   5.29321059631769E-05
     -2.32597522419945E-17  -8.00000000000000E-01  -8.00000000000000E-01   0.00000000000000E+00   0.00000000000000E+00
     -5.29321148855033E-05  -1.31474465450755E-15  -5.29321148868180E-05  -3.30870136817234E-16
      2.83333333333333E-01
     -2.26666666666667E-01  -2.26666666666667E-01   0.00000000000000E+00   0.00000000000000E+00   0.00000000000000E+00
      0.00000000000000E+00   0.00000000000000E+00   3.28319782647092E-16   0.00000000000000E+00   0.00000000000000E+00
      0.00000000000000E+00   0.00000000000000E+00   7.10774981890287E-05  -7.07396302524932E-12   7.10774911150657E-05
     -1.81056959599663E-17  -8.00000000000000E-01  -8.00000000000000E-01   0.00000000000000E+00   0.00000000000000E+00
     -7.10774982026312E-05  -1.87482154175530E-13  -7.10774983901134E-05  -3.25992880928817E-16
      3.00000000000000E-01
     -2.40000000000000E-01  -2.40000000000000E-01   0.00000000000000E+00   0.00000000000000E+00   0.00000000000000E+00
      0.00000000000000E+00   0.00000000000000E+00   3.15162599616545E-16   0.00000000000000E+00   0.00000000000000E+00
      0.00000000000000E+00   0.00000000000000E+00   8.83505072047134E-05   5.77170481436006E-12   8.83505129764182E-05
     -1.29466113920759E-17  -8.00000000000000E-01  -8.00000000000000E-01   0.00000000000000E+00   0.00000000000000E+00
     -8.83505072384994E-05  -9.73638177351056E-13  -8.83505082121376E-05  -3.21108119763746E-16
      3.16666666666667E-01
     -2.53333333333333E-01  -2.53333333333333E-01   0.00000000000000E+00   0.00000000000000E+00   0.00000000000000E+00
      0.00000000000000E+00   0.00000000000000E+00   3.01620598366144E-16   0.00000000000000E+00   0.00000000000000E+00
      0.00000000000000E+00   0.00000000000000E+00   1.07887584904056E-04  -1.10973164343145E-11   1.07887573806739E-04
     -7.84218554341728E-18  -8.00000000000000E-01  -8.00000000000000E-01   0.00000000000000E+00   0.00000000000000E+00
     -1.07887584924249E-04  -1.74138126581110E-14  -1.07887584941663E-04  -3.16217516126777E-16
      3.33333333333333E-01
     -2.66666666666667E-01  -2.66666666666667E-01   0.00000000000000E+00   0.00000000000000E+00   0.00000000000000E+00
      0.00000000000000E+00   0.00000000000000E+00   2.87702905177299E-16   0.00000000000000E+00   0.00000000000000E+00
      0.00000000000000E+00   0.00000000000000E+00   1.29832181190538E-04  -3.69210021325808E-12   1.29832177498437E-04
     -2.78629162454480E-18  -8.00000000000000E-01  -8.00000000000000E-01   0.00000000000000E+00   0.00000000000000E+00
     -1.29832181203882E-04   1.11350029880983E-14  -1.29832181192747E-04  -3.11320570692208E-16
      3.50000000000000E-01
     -2.80000000000000E-01  -2.80000000000000E-01   0.00000000000000E+00   0.00000000000000E+00   0.00000000000000E+00
      0.00000000000000E+00   0.00000000000000E+00   2.73432918256485E-16   0.00000000000000E+00   0.00000000000000E+00
      0.00000000000000E+00   0.00000000000000E+00   1.54044392476948E-04  -2.76097200143581E-12   1.54044389715976E-04
      2.22376036768668E-18  -8.00000000000000E-01  -8.00000000000000E-01   0.00000000000000E+00   0.00000000000000E+00
     -1.54044392466269E-04  -1.38585582930620E-14  -1.54044392480127E-04  -3.06416636836962E-16
      3.66666666666667E-01
     -2.93333333333333E-01  -2.93333333333333E-01   0.00000000000000E+00   0.00000000000000E+00   0.00000000000000E+00
      0.00000000000000E+00   0.00000000000000E+00   2.58804517047352E-16   0.00000000000000E+00   0.00000000000000E+00
      0.00000000000000E+00   0.00000000000000E+00   1.80252190901609E-04  -2.54801156411082E-12   1.80252188353597E-04
      7.18836613458715E-18  -8.00000000000000E-01  -8.00000000000000E-01   0.00000000000000E+00   0.00000000000000E+00
     -1.80252190931066E-04   3.20573466970317E-14  -1.80252190899009E-04  -3.01506879597221E-16
      3.83333333333333E-01
     -3.06666666666667E-01  -3.06666666666667E-01   0.00000000000000E+00   0.00000000000000E+00   0.00000000000000E+00
      0.00000000000000E+00   0.00000000000000E+00   2.43865869850887E-16   0.00000000000000E+00   0.00000000000000E+00
      0.00000000000000E+00   0.00000000000000E+00   2.08534860296987E-04  -1.20721511958225E-12   2.08534859089772E-04
      1.21124960427140E-17  -8.00000000000000E-01  -8.00000000000000E-01   0.00000000000000E+00   0.00000000000000E+00
     -2.08534860297943E-04  -2.06441910756428E-15  -2.08534860300008E-04  -2.96589056305725E-16
      4.00000000000000E-01
     -3.20000000000000E-01  -3.20000000000000E-01   0.00000000000000E+00   0.00000000000000E+00   0.00000000000000E+00
      0.00000000000000E+00   0.00000000000000E+00   2.28606893327536E-16   0.00000000000000E+00   0.00000000000000E+00
      0.00000000000000E+00   0.00000000000000E+00   2.38640203668037E-04  -1.13358605045546E-12   2.38640202534451E-04
      1.69979268451898E-17  -8.00000000000000E-01  -8.00000000000000E-01   0.00000000000000E+00   0.00000000000000E+00
     -2.38640203676379E-04   1.95882402809538E-14  -2.38640203656790E-04  -2.91664797003742E-16
      4.16666666666667E-01
     -3.33333333333333E-01  -3.33333333333333E-01   0.00000000000000E+00   0.00000000000000E+00   0.00000000000000E+00
      0.00000000000000E+00   0.00000000000000E+00   2.13045712296044E-16   0.00000000000000E+00   0.00000000000000E+00
      0.00000000000000E+00   0.00000000000000E+00   2.70375712659724E-04  -8.45979959764588E-13   2.70375711813744E-04
      2.18467552068070E-17  -8.00000000000000E-01  -8.00000000000000E-01   0.00000000000000E+00   0.00000000000000E+00
     -2.70375712667298E-04   1.01940244967575E-14  -2.70375712657104E-04  -2.86733776941001E-16
      4.33333333333333E-01
     -3.46666666666667E-01  -3.46666666666667E-01   0.00000000000000E+00   0.00000000000000E+00   0.00000000000000E+00
      0.00000000000000E+00   0.00000000000000E+00   1.97245742944652E-16   0.00000000000000E+00   0.00000000000000E+00
      0.00000000000000E+00   0.00000000000000E+00   3.03867206440741E-04  -6.26574347563493E-13   3.03867205814167E-04
      2.66628032006565E-17  -8.00000000000000E-01  -8.00000000000000E-01   0.00000000000000E+00   0.00000000000000E+00
     -3.03867206442490E-04   1.13661013879576E-15  -3.03867206441353E-04  -2.81792531664608E-16
      4.50000000000000E-01
     -3.60000000000000E-01  -3.60000000000000E-01   0.00000000000000E+00   0.00000000000000E+00   0.00000000000000E+00
      0.00000000000000E+00   0.00000000000000E+00   1.81139260464329E-16   0.00000000000000E+00   0.00000000000000E+00
      0.00000000000000E+00   0.00000000000000E+00   3.38609692038220E-04  -7.22066888423563E-13   3.38609691316153E-04
      3.14460795788123E-17  -8.00000000000000E-01  -8.00000000000000E-01   0.00000000000000E+00   0.00000000000000E+00
     -3.38609692086373E-04   6.02998497243697E-14  -3.38609692026074E-04  -2.76847815608196E-16
      4.66666666666667E-01
     -3.73333333333333E-01  -3.73333333333333E-01   0.00000000000000E+00   0.00000000000000E+00   0.00000000000000E+00
      0.00000000000000E+00   0.00000000000000E+00   1.64804038686769E-16   0.00000000000000E+00   0.00000000000000E+00
      0.00000000000000E+00   0.00000000000000E+00   3.74726679469888E-04  -4.44541382418243E-13   3.74726679025347E-04
      3.62000764647729E-17  -8.00000000000000E-01  -8.00000000000000E-01   0.00000000000000E+00   0.00000000000000E+00
     -3.74726679471631E-04  -1.00974597953706E-16  -3.74726679471732E-04  -2.71893980594188E-16
      4.83333333333333E-01
     -3.86666666666667E-01  -3.86666666666667E-01   0.00000000000000E+00   0.00000000000000E+00   0.00000000000000E+00
      0.00000000000000E+00   0.00000000000000E+00   1.48277371704327E-16   0.00000000000000E+00   0.00000000000000E+00
      0.00000000000000E+00   0.00000000000000E+00   4.12212889167511E-04  -3.88442137905497E-13   4.12212888779068E-04
      4.09272635051093E-17  -8.00000000000000E-01  -8.00000000000000E-01   0.00000000000000E+00   0.00000000000000E+00
     -4.12212889166589E-04  -1.14362845732861E-15  -4.12212889167733E-04  -2.66928791103368E-16
      5.00000000000000E-01
     -4.00000000000000E-01  -4.00000000000000E-01   0.00000000000000E+00   0.00000000000000E+00   0.00000000000000E+00
      0.00000000000000E+00   0.00000000000000E+00   1.31496467595464E-16   0.00000000000000E+00   0.00000000000000E+00
      0.00000000000000E+00   0.00000000000000E+00   4.50686603226150E-04  -3.96909594106424E-13   4.50686602829240E-04
      4.56282260073476E-17  -8.00000000000000E-01  -8.00000000000000E-01   0.00000000000000E+00   0.00000000000000E+00
     -4.50686603233269E-04   2.21359890071775E-14  -4.50686603211133E-04  -2.61960434016446E-16
      5.16666666666667E-01
     -4.13333333333333E-01  -4.13333333333333E-01   0.00000000000000E+00   0.00000000000000E+00   0.00000000000000E+00
      0.00000000000000E+00   0.00000000000000E+00   1.14500695832054E-16   0.00000000000000E+00   0.00000000000000E+00
      0.00000000000000E+00   0.00000000000000E+00   4.90131045383821E-04  -2.88598145765124E-13   4.90131045095223E-04
      5.03052423026195E-17  -8.00000000000000E-01  -8.00000000000000E-01   0.00000000000000E+00   0.00000000000000E+00
     -4.90131045384314E-04   3.94738831369532E-16  -4.90131045383920E-04  -2.56985497692490E-16
      5.33333333333333E-01
     -4.26666666666667E-01  -4.26666666666667E-01   0.00000000000000E+00   0.00000000000000E+00   0.00000000000000E+00
      0.00000000000000E+00   0.00000000000000E+00   9.73509243369439E-17   0.00000000000000E+00   0.00000000000000E+00
      0.00000000000000E+00   0.00000000000000E+00   5.30635627341011E-04  -2.53010471590299E-13   5.30635627088001E-04
      5.49608286186189E-17  -8.00000000000000E-01  -8.00000000000000E-01   0.00000000000000E+00   0.00000000000000E+00
     -5.30635627340623E-04  -1.94962730560037E-16  -5.30635627340818E-04  -2.51998245946574E-16
      5.50000000000000E-01
     -4.40000000000000E-01  -4.40000000000000E-01   0.00000000000000E+00   0.00000000000000E+00   0.00000000000000E+00
      0.00000000000000E+00   0.00000000000000E+00   8.00388636309836E-17   0.00000000000000E+00   0.00000000000000E+00
      0.00000000000000E+00   0.00000000000000E+00   5.72066319162498E-04  -2.16507464277682E-13   5.72066318945990E-04
      5.95964019823571E-17  -8.00000000000000E-01  -8.00000000000000E-01   0.00000000000000E+00   0.00000000000000E+00
     -5.72066319162301E-04  -7.57596163322065E-16  -5.72066319163059E-04  -2.47001461146850E-16
      5.66666666666667E-01
     -4.53333333333333E-01  -4.53333333333333E-01   0.00000000000000E+00   0.00000000000000E+00   0.00000000000000E+00
      0.00000000000000E+00   0.00000000000000E+00   6.25252282091272E-17   0.00000000000000E+00   0.00000000000000E+00
      0.00000000000000E+00   0.00000000000000E+00   6.14187046560882E-04  -1.79503494838625E-13   6.14187046381379E-04
      6.42129426856099E-17  -8.00000000000000E-01  -8.00000000000000E-01   0.00000000000000E+00   0.00000000000000E+00
     -6.14187046572880E-04  -4.75851198558562E-16  -6.14187046573356E-04  -2.42002235012683E-16
      5.83333333333333E-01
     -4.66666666666667E-01  -4.66666666666667E-01   0.00000000000000E+00   0.00000000000000E+00   0.00000000000000E+00
      0.00000000000000E+00   0.00000000000000E+00   4.48415971777746E-17   0.00000000000000E+00   0.00000000000000E+00
      0.00000000000000E+00   0.00000000000000E+00   6.56991282388375E-04  -1.58193012986201E-13   6.56991282230182E-04
      6.88122406901576E-17  -8.00000000000000E-01  -8.00000000000000E-01   0.00000000000000E+00   0.00000000000000E+00
     -6.56991282389236E-04  -3.60224135286653E-17  -6.56991282389272E-04  -2.36996692403990E-16
      6.00000000000000E-01
     -4.80000000000000E-01  -4.80000000000000E-01   0.00000000000000E+00   0.00000000000000E+00   0.00000000000000E+00
      0.00000000000000E+00   0.00000000000000E+00   2.70303561191048E-17   0.00000000000000E+00   0.00000000000000E+00
      0.00000000000000E+00   0.00000000000000E+00   7.00521974730051E-04  -1.38418693474191E-13   7.00521974591633E-04
      7.33961098587558E-17  -8.00000000000000E-01  -8.00000000000000E-01   0.00000000000000E+00   0.00000000000000E+00
     -7.00521974730112E-04   5.17104612990683E-16  -7.00521974729595E-04  -2.31979760184767E-16
      6.16666666666667E-01
     -4.93333333333334E-01  -4.93333333333334E-01   0.00000000000000E+00   0.00000000000000E+00   0.00000000000000E+00
      0.00000000000000E+00   0.00000000000000E+00   9.11120540384987E-18   0.00000000000000E+00   0.00000000000000E+00
      0.00000000000000E+00   0.00000000000000E+00   7.44763662122929E-04  -1.19388039665723E-13   7.44763662003541E-04
      7.79660169530331E-17  -8.00000000000000E-01  -8.00000000000000E-01   0.00000000000000E+00   0.00000000000000E+00
     -7.44763662122732E-04   3.20598772556555E-16  -7.44763662122411E-04  -2.26949599395124E-16
      6.33333333333334E-01
     -5.06666666666667E-01  -5.06666666666667E-01   0.00000000000000E+00   0.00000000000000E+00   0.00000000000000E+00
      0.00000000000000E+00   0.00000000000000E+00  -8.95856963552334E-18   0.00000000000000E+00   0.00000000000000E+00
      0.00000000000000E+00   0.00000000000000E+00   7.89520120711071E-04  -1.03612625686050E-13   7.89520120607458E-04
      8.25227421767895E-17  -8.00000000000000E-01  -8.00000000000000E-01   0.00000000000000E+00   0.00000000000000E+00
     -7.89520120710096E-04   2.18695477284130E-15  -7.89520120707909E-04  -2.21916683750343E-16
      6.50000000000000E-01
     -5.20000000000000E-01  -5.20000000000000E-01   0.00000000000000E+00   0.00000000000000E+00   0.00000000000000E+00
      0.00000000000000E+00   0.00000000000000E+00  -2.71665985216652E-17   0.00000000000000E+00   0.00000000000000E+00
      0.00000000000000E+00   0.00000000000000E+00   8.34754690118116E-04  -8.48685514480516E-14   8.34754690033247E-04
      8.70675253541662E-17  -8.00000000000000E-01  -8.00000000000000E-01   0.00000000000000E+00   0.00000000000000E+00
     -8.34754690117737E-04   4.77627898459465E-16  -8.34754690117259E-04  -2.16879328871651E-16
      6.66666666666667E-01
     -5.33333333333334E-01  -5.33333333333334E-01   0.00000000000000E+00   0.00000000000000E+00   0.00000000000000E+00
      0.00000000000000E+00   0.00000000000000E+00  -4.54966502908448E-17   0.00000000000000E+00   0.00000000000000E+00
      0.00000000000000E+00   0.00000000000000E+00   8.80447395862817E-04  -7.25723653581855E-14   8.80447395790245E-04
      9.16015578475457E-17  -8.00000000000000E-01  -8.00000000000000E-01   0.00000000000000E+00   0.00000000000000E+00
     -8.80447395861536E-04  -3.92346303216125E-16  -8.80447395861928E-04  -2.11835072532984E-16
      6.83333333333334E-01
     -5.46666666666667E-01  -5.46666666666667E-01   0.00000000000000E+00   0.00000000000000E+00   0.00000000000000E+00
      0.00000000000000E+00   0.00000000000000E+00  -6.39311344542578E-17   0.00000000000000E+00   0.00000000000000E+00
      0.00000000000000E+00   0.00000000000000E+00   9.26587178526786E-04  -6.03627951581098E-14   9.26587178466423E-04
      9.61259336897590E-17  -8.00000000000000E-01  -8.00000000000000E-01   0.00000000000000E+00   0.00000000000000E+00
     -9.26587178526390E-04  -1.92478182093037E-16  -9.26587178526582E-04  -2.06781419813292E-16
      7.00000000000001E-01
     -5.60000000000000E-01  -5.60000000000000E-01   0.00000000000000E+00   0.00000000000000E+00   0.00000000000000E+00
      0.00000000000000E+00   0.00000000000000E+00  -8.24470964332455E-17   0.00000000000000E+00   0.00000000000000E+00
      0.00000000000000E+00   0.00000000000000E+00   9.73185424809321E-04  -5.13456149126450E-14   9.73185424757976E-04
      1.00641694253656E-16  -8.00000000000000E-01  -8.00000000000000E-01   0.00000000000000E+00   0.00000000000000E+00
     -9.73185424809083E-04  -1.77896501631443E-16  -9.73185424809261E-04  -2.01714694445721E-16
      7.16666666666667E-01
     -5.73333333333334E-01  -5.73333333333334E-01   0.00000000000000E+00   0.00000000000000E+00   0.00000000000000E+00
      0.00000000000000E+00   0.00000000000000E+00  -1.01058578135188E-16   0.00000000000000E+00   0.00000000000000E+00
      0.00000000000000E+00   0.00000000000000E+00   1.02016246219648E-03  -4.28063634012802E-14   1.02016246215367E-03
      1.05149641458841E-16  -8.00000000000000E-01  -8.00000000000000E-01   0.00000000000000E+00   0.00000000000000E+00
     -1.02016246219556E-03  -5.50309789226283E-16  -1.02016246219611E-03  -1.96641356251075E-16
      7.33333333333334E-01
     -5.86666666666667E-01  -5.86666666666667E-01   0.00000000000000E+00   0.00000000000000E+00   0.00000000000000E+00
      0.00000000000000E+00   0.00000000000000E+00  -1.19779963111081E-16   0.00000000000000E+00   0.00000000000000E+00
      0.00000000000000E+00   0.00000000000000E+00   1.06743328033331E-03  -3.55172857134129E-14   1.06743328029779E-03
      1.09650439366150E-16  -8.00000000000000E-01  -8.00000000000000E-01   0.00000000000000E+00   0.00000000000000E+00
     -1.06743328033256E-03   1.24015068780156E-16  -1.06743328033243E-03  -1.91566887892328E-16
      7.50000000000001E-01
     -6.00000000000001E-01  -6.00000000000001E-01   0.00000000000000E+00   0.00000000000000E+00   0.00000000000000E+00
      0.00000000000000E+00   0.00000000000000E+00  -1.38596154490939E-16   0.00000000000000E+00   0.00000000000000E+00
      0.00000000000000E+00   0.00000000000000E+00   1.11499421017628E-03  -2.96418736323545E-14   1.11499421014663E-03
      1.14144907863882E-16  -8.00000000000000E-01  -8.00000000000000E-01   0.00000000000000E+00   0.00000000000000E+00
     -1.11499421017605E-03   3.57180386452437E-17  -1.11499421017601E-03  -1.86487645103175E-16
      7.66666666666667E-01
     -6.13333333333334E-01  -6.13333333333334E-01   0.00000000000000E+00   0.00000000000000E+00   0.00000000000000E+00
      0.00000000000000E+00   0.00000000000000E+00  -1.57497822573482E-16   0.00000000000000E+00   0.00000000000000E+00
      0.00000000000000E+00   0.00000000000000E+00   1.16282917267842E-03  -2.56034630715448E-14   1.16282917265282E-03
      1.18633762069808E-16  -8.00000000000000E-01  -8.00000000000000E-01   0.00000000000000E+00   0.00000000000000E+00
     -1.16282917267676E-03   2.83772243056804E-15  -1.16282917267392E-03  -1.81401903338221E-16
      7.83333333333334E-01
     -6.26666666666667E-01  -6.26666666666667E-01   0.00000000000000E+00   0.00000000000000E+00   0.00000000000000E+00
      0.00000000000000E+00   0.00000000000000E+00  -1.76477734356491E-16   0.00000000000000E+00   0.00000000000000E+00
      0.00000000000000E+00   0.00000000000000E+00   1.21091910786439E-03  -2.07566186633960E-14   1.21091910784363E-03
      1.23117645190694E-16  -8.00000000000000E-01  -8.00000000000000E-01   0.00000000000000E+00   0.00000000000000E+00
     -1.21091910786414E-03  -1.17262193459593E-16  -1.21091910786426E-03  -1.76308581425173E-16
      8.00000000000001E-01
     -6.40000000000001E-01  -6.40000000000001E-01   0.00000000000000E+00   0.00000000000000E+00   0.00000000000000E+00
      0.00000000000000E+00   0.00000000000000E+00  -1.95525411984837E-16   0.00000000000000E+00   0.00000000000000E+00