DF-ISE text

Info {
  version   = 1.0
  type      = xyplot
  datasets  = [
    "time"
    "gate OuterVoltage" "gate InnerVoltage" "gate QuasiFermiPotential" "gate DisplacementCurrent" "gate eCurrent"
    "gate hCurrent" "gate TotalCurrent" "gate Charge" "source OuterVoltage" "source InnerVoltage"
    "source QuasiFermiPotential" "source DisplacementCurrent" "source eCurrent" "source hCurrent" "source TotalCurrent"
    "source Charge" "drain OuterVoltage" "drain InnerVoltage" "drain QuasiFermiPotential" "drain DisplacementCurrent"
    "drain eCurrent" "drain hCurrent" "drain TotalCurrent" "drain Charge" ]
  functions = [
    Time
    OuterVoltage InnerVoltage QuasiFermiPotential DisplacementCurrent eCurrent
    hCurrent TotalCurrent Charge OuterVoltage InnerVoltage
    QuasiFermiPotential DisplacementCurrent eCurrent hCurrent TotalCurrent
    Charge OuterVoltage InnerVoltage QuasiFermiPotential DisplacementCurrent
    eCurrent hCurrent TotalCurrent Charge ]
}

Data {
      0.00000000000000E+00
      0.00000000000000E+00   0.00000000000000E+00   0.00000000000000E+00   0.00000000000000E+00   0.00000000000000E+00
      0.00000000000000E+00   0.00000000000000E+00   4.79798494327017E-16   0.00000000000000E+00   0.00000000000000E+00
      0.00000000000000E+00   0.00000000000000E+00   6.03480678933438E-08   7.70715696735538E-18   6.03480679010510E-08
     -1.08709810232013E-16  -7.00000000000000E-01  -7.00000000000000E-01   0.00000000000000E+00   0.00000000000000E+00
     -6.03480679534243E-08   5.23550669829503E-17  -6.03480679010692E-08  -3.72296961755592E-16
      1.66666666666667E-02
     -1.16666666666667E-02  -1.16666666666667E-02   0.00000000000000E+00   0.00000000000000E+00   0.00000000000000E+00
      0.00000000000000E+00   0.00000000000000E+00   4.70933576480658E-16   0.00000000000000E+00   0.00000000000000E+00
      0.00000000000000E+00   0.00000000000000E+00   9.01676530511103E-08  -2.33243644145289E-13   9.01674198074661E-08
     -1.04102625882001E-16  -7.00000000000000E-01  -7.00000000000000E-01   0.00000000000000E+00   0.00000000000000E+00
     -9.01676412163303E-08  -1.20758287804661E-14  -9.01676532921590E-08  -3.68064702974050E-16
      3.33333333333333E-02
     -2.33333333333333E-02  -2.33333333333333E-02   0.00000000000000E+00   0.00000000000000E+00   0.00000000000000E+00
      0.00000000000000E+00   0.00000000000000E+00   4.62040079681939E-16   0.00000000000000E+00   0.00000000000000E+00
      0.00000000000000E+00   0.00000000000000E+00   1.34562964596126E-07   4.69906411989720E-17   1.34562964643117E-07
     -9.94799806554432E-17  -7.00000000000000E-01  -7.00000000000000E-01   0.00000000000000E+00   0.00000000000000E+00
     -1.34562964566317E-07  -7.68822358164430E-17  -1.34562964643200E-07  -3.63827361331925E-16
      5.00000000000000E-02
     -3.50000000000000E-02  -3.50000000000000E-02   0.00000000000000E+00   0.00000000000000E+00   0.00000000000000E+00
      0.00000000000000E+00   0.00000000000000E+00   4.53115218840118E-16   0.00000000000000E+00   0.00000000000000E+00
      0.00000000000000E+00   0.00000000000000E+00   2.00544683955332E-07  -9.44128348388057E-16   2.00544683011203E-07
     -9.48416537586051E-17  -7.00000000000000E-01  -7.00000000000000E-01   0.00000000000000E+00   0.00000000000000E+00
     -2.00544688556145E-07   4.12258628437648E-15  -2.00544684433559E-07  -3.59584986726113E-16
      6.66666666666667E-02
     -4.66666666666667E-02  -4.66666666666667E-02   0.00000000000000E+00   0.00000000000000E+00   0.00000000000000E+00
      0.00000000000000E+00   0.00000000000000E+00   4.44155590252815E-16   0.00000000000000E+00   0.00000000000000E+00
      0.00000000000000E+00   0.00000000000000E+00   2.98409359050629E-07  -6.75948731483680E-18   2.98409359043869E-07
     -9.01876721107974E-17  -7.00000000000000E-01  -7.00000000000000E-01   0.00000000000000E+00   0.00000000000000E+00
     -2.98409361555274E-07   1.67558720680928E-15  -2.98409359879686E-07  -3.55337635363521E-16
      8.33333333333333E-02
     -5.83333333333333E-02  -5.83333333333333E-02   0.00000000000000E+00   0.00000000000000E+00   0.00000000000000E+00
      0.00000000000000E+00   0.00000000000000E+00   4.35156951359185E-16   0.00000000000000E+00   0.00000000000000E+00
      0.00000000000000E+00   0.00000000000000E+00   4.43210327627378E-07   3.31488130266599E-15   4.43210330942259E-07
     -8.55183789375546E-17  -7.00000000000000E-01  -7.00000000000000E-01   0.00000000000000E+00   0.00000000000000E+00
     -4.43210337807214E-07   6.32096223876355E-15  -4.43210331486251E-07  -3.51085372099827E-16
      1.00000000000000E-01
     -7.00000000000000E-02  -7.00000000000000E-02   0.00000000000000E+00   0.00000000000000E+00   0.00000000000000E+00
      0.00000000000000E+00   0.00000000000000E+00   4.26113922559245E-16   0.00000000000000E+00   0.00000000000000E+00
      0.00000000000000E+00   0.00000000000000E+00   6.56828697189989E-07   4.35011828704854E-15   6.56828701540108E-07
     -8.08345124186384E-17  -7.00000000000000E-01  -7.00000000000000E-01   0.00000000000000E+00   0.00000000000000E+00
     -6.56828707360740E-07   5.44468788760860E-15  -6.56828701916052E-07  -3.46828273574136E-16
      1.16666666666667E-01
     -8.16666666666667E-02  -8.16666666666667E-02   0.00000000000000E+00   0.00000000000000E+00   0.00000000000000E+00
      0.00000000000000E+00   0.00000000000000E+00   4.17019593155450E-16   0.00000000000000E+00   0.00000000000000E+00
      0.00000000000000E+00   0.00000000000000E+00   9.70838061125337E-07  -1.31142755403331E-15   9.70838059813909E-07
     -7.61372939095673E-17  -7.00000000000000E-01  -7.00000000000000E-01   0.00000000000000E+00   0.00000000000000E+00
     -9.70838059783145E-07  -2.69199219914977E-16  -9.70838060052344E-07  -3.42566432217338E-16
      1.33333333333333E-01
     -9.33333333333333E-02  -9.33333333333333E-02   0.00000000000000E+00   0.00000000000000E+00   0.00000000000000E+00
      0.00000000000000E+00   0.00000000000000E+00   4.07865016554619E-16   0.00000000000000E+00   0.00000000000000E+00
      0.00000000000000E+00   0.00000000000000E+00   1.43037363631057E-06  -2.17379379249432E-15   1.43037363413678E-06
     -7.14285231012845E-17  -7.00000000000000E-01  -7.00000000000000E-01   0.00000000000000E+00   0.00000000000000E+00
     -1.43037363576435E-06   7.98144438920880E-16  -1.43037363496620E-06  -3.38299960949026E-16
      1.50000000000000E-01
     -1.05000000000000E-01  -1.05000000000000E-01   0.00000000000000E+00   0.00000000000000E+00   0.00000000000000E+00
      0.00000000000000E+00   0.00000000000000E+00   3.98638590727156E-16   0.00000000000000E+00   0.00000000000000E+00
      0.00000000000000E+00   0.00000000000000E+00   2.09919040528491E-06  -4.23890268085917E-15   2.09919040104601E-06
     -6.67106739673037E-17  -7.00000000000000E-01  -7.00000000000000E-01   0.00000000000000E+00   0.00000000000000E+00
     -2.09919040569761E-06   6.61460843981349E-16  -2.09919040503615E-06  -3.34028998013666E-16
      1.66666666666667E-01
     -1.16666666666667E-01  -1.16666666666667E-01   0.00000000000000E+00   0.00000000000000E+00   0.00000000000000E+00
      0.00000000000000E+00   0.00000000000000E+00   3.89325343277872E-16   0.00000000000000E+00   0.00000000000000E+00
      0.00000000000000E+00   0.00000000000000E+00   3.06598509666199E-06  -1.31568646637998E-14   3.06598508350512E-06
     -6.19869799939006E-17  -7.00000000000000E-01  -7.00000000000000E-01   0.00000000000000E+00   0.00000000000000E+00
     -3.06598509777864E-06   1.61515392693895E-16  -3.06598509761712E-06  -3.29753711120618E-16
      1.83333333333333E-01
     -1.28333333333333E-01  -1.28333333333333E-01   0.00000000000000E+00   0.00000000000000E+00   0.00000000000000E+00
      0.00000000000000E+00   0.00000000000000E+00   3.79906180115637E-16   0.00000000000000E+00   0.00000000000000E+00
      0.00000000000000E+00   0.00000000000000E+00   4.45181915317316E-06  -4.05801432039397E-14   4.45181911259301E-06
     -5.72614904301019E-17  -7.00000000000000E-01  -7.00000000000000E-01   0.00000000000000E+00   0.00000000000000E+00
     -4.45181915274345E-06  -2.55492354565042E-16  -4.45181915299894E-06  -3.25474299672599E-16
      2.00000000000000E-01
     -1.40000000000000E-01  -1.40000000000000E-01   0.00000000000000E+00   0.00000000000000E+00   0.00000000000000E+00
      0.00000000000000E+00   0.00000000000000E+00   3.70357209942105E-16   0.00000000000000E+00   0.00000000000000E+00
      0.00000000000000E+00   0.00000000000000E+00   6.41810100417929E-06  -1.00882594050587E-13   6.41810090329669E-06
     -5.25390729122097E-17  -7.00000000000000E-01  -7.00000000000000E-01   0.00000000000000E+00   0.00000000000000E+00
     -6.41810100360361E-06   2.20930708213990E-16  -6.41810100338267E-06  -3.21190993265131E-16
      2.16666666666667E-01
     -1.51666666666667E-01  -1.51666666666667E-01   0.00000000000000E+00   0.00000000000000E+00   0.00000000000000E+00
      0.00000000000000E+00   0.00000000000000E+00   3.60649304423034E-16   0.00000000000000E+00   0.00000000000000E+00
      0.00000000000000E+00   0.00000000000000E+00   9.17417130197665E-06  -2.21408610099615E-13   9.17417108056804E-06
     -4.78253361511452E-17  -7.00000000000000E-01  -7.00000000000000E-01   0.00000000000000E+00   0.00000000000000E+00
     -9.17417130166728E-06   1.76304063560403E-16  -9.17417130149098E-06  -3.16904043953596E-16
      2.33333333333333E-01
     -1.63333333333333E-01  -1.63333333333333E-01   0.00000000000000E+00   0.00000000000000E+00   0.00000000000000E+00
      0.00000000000000E+00   0.00000000000000E+00   3.50748046591238E-16   0.00000000000000E+00   0.00000000000000E+00
      0.00000000000000E+00   0.00000000000000E+00   1.29834510782208E-05  -4.38919894523759E-13   1.29834506393009E-05
     -4.31264565063967E-17  -7.00000000000000E-01  -7.00000000000000E-01   0.00000000000000E+00   0.00000000000000E+00
     -1.29834510787213E-05   3.00682568338714E-16  -1.29834510784206E-05  -3.12613709715271E-16
      2.50000000000000E-01
     -1.75000000000000E-01  -1.75000000000000E-01   0.00000000000000E+00   0.00000000000000E+00   0.00000000000000E+00
      0.00000000000000E+00   0.00000000000000E+00   3.40614064633783E-16   0.00000000000000E+00   0.00000000000000E+00
      0.00000000000000E+00   0.00000000000000E+00   1.81681959519851E-05  -7.87703004580344E-13   1.81681951642820E-05
     -3.84489228123303E-17  -7.00000000000000E-01  -7.00000000000000E-01   0.00000000000000E+00   0.00000000000000E+00
     -1.81681959524039E-05  -5.07666115969813E-16  -1.81681959529116E-05  -3.08320227819873E-16
      2.66666666666667E-01
     -1.86666666666667E-01  -1.86666666666667E-01   0.00000000000000E+00   0.00000000000000E+00   0.00000000000000E+00
      0.00000000000000E+00   0.00000000000000E+00   3.30203274606108E-16   0.00000000000000E+00   0.00000000000000E+00
      0.00000000000000E+00   0.00000000000000E+00   2.51169336009512E-05  -1.28726622900639E-12   2.51169323136850E-05
     -3.37992740652281E-17  -7.00000000000000E-01  -7.00000000000000E-01   0.00000000000000E+00   0.00000000000000E+00
     -2.51169335990964E-05  -1.48776275230253E-15  -2.51169336005842E-05  -3.04023779808258E-16
      2.83333333333333E-01
     -1.98333333333333E-01  -1.98333333333333E-01   0.00000000000000E+00   0.00000000000000E+00   0.00000000000000E+00
      0.00000000000000E+00   0.00000000000000E+00   3.19465257327379E-16   0.00000000000000E+00   0.00000000000000E+00
      0.00000000000000E+00   0.00000000000000E+00   3.43110963041709E-05  -1.94248939527807E-12   3.43110943616815E-05
     -2.91840239992559E-17  -7.00000000000000E-01  -7.00000000000000E-01   0.00000000000000E+00   0.00000000000000E+00
     -3.43110963111509E-05   3.28856224244892E-15  -3.43110963078624E-05  -2.99724454577986E-16
      3.00000000000000E-01
     -2.10000000000000E-01  -2.10000000000000E-01   0.00000000000000E+00   0.00000000000000E+00   0.00000000000000E+00
      0.00000000000000E+00   0.00000000000000E+00   3.08332715306524E-16   0.00000000000000E+00   0.00000000000000E+00
      0.00000000000000E+00   0.00000000000000E+00   4.64402416424570E-05  -2.90883171989037E-12   4.64402387336253E-05
     -2.46103793375385E-17  -7.00000000000000E-01  -7.00000000000000E-01   0.00000000000000E+00   0.00000000000000E+00
     -4.64402416408123E-05  -3.41889087803331E-16  -4.64402416411542E-05  -2.95422229035153E-16
      3.16666666666667E-01
     -2.21666666666667E-01  -2.21666666666667E-01   0.00000000000000E+00   0.00000000000000E+00   0.00000000000000E+00
      0.00000000000000E+00   0.00000000000000E+00   2.96795342180067E-16   0.00000000000000E+00   0.00000000000000E+00
      0.00000000000000E+00   0.00000000000000E+00   6.16698423412541E-05  -4.13881762508305E-12   6.16698382024365E-05
     -2.00842810011007E-17  -7.00000000000000E-01  -7.00000000000000E-01   0.00000000000000E+00   0.00000000000000E+00
     -6.16698423432442E-05   6.33056844197643E-15  -6.16698423369136E-05  -2.91116427350227E-16
      3.33333333333333E-01
     -2.33333333333333E-01  -2.33333333333333E-01   0.00000000000000E+00   0.00000000000000E+00   0.00000000000000E+00
      0.00000000000000E+00   0.00000000000000E+00   2.85320353428842E-16   0.00000000000000E+00   0.00000000000000E+00
      0.00000000000000E+00   0.00000000000000E+00   7.58886509010252E-05  -1.13528213033104E-11   7.58886395482039E-05
     -1.55560945133851E-17  -7.00000000000000E-01  -7.00000000000000E-01   0.00000000000000E+00   0.00000000000000E+00
     -7.58886508878092E-05  -1.14925829816106E-12  -7.58886520370675E-05  -2.86804500669116E-16
      3.50000000000000E-01
     -2.45000000000000E-01  -2.45000000000000E-01   0.00000000000000E+00   0.00000000000000E+00   0.00000000000000E+00
      0.00000000000000E+00   0.00000000000000E+00   2.73592740989450E-16   0.00000000000000E+00   0.00000000000000E+00
      0.00000000000000E+00   0.00000000000000E+00   9.15206191601104E-05  -2.76380098016697E-12   9.15206163963094E-05
     -1.10595030266377E-17  -7.00000000000000E-01  -7.00000000000000E-01   0.00000000000000E+00   0.00000000000000E+00
     -9.15206191783236E-05  -1.06289036506890E-14  -9.15206191889524E-05  -2.82488461411492E-16
      3.66666666666667E-01
     -2.56666666666667E-01  -2.56666666666667E-01   0.00000000000000E+00   0.00000000000000E+00   0.00000000000000E+00
      0.00000000000000E+00   0.00000000000000E+00   2.61565585180518E-16   0.00000000000000E+00   0.00000000000000E+00
      0.00000000000000E+00   0.00000000000000E+00   1.09096158608823E-04  -1.78858784838325E-12   1.09096156820235E-04
     -6.60169314595234E-18  -7.00000000000000E-01  -7.00000000000000E-01   0.00000000000000E+00   0.00000000000000E+00
     -1.09096158612412E-04  -5.18980411690839E-16  -1.09096158612931E-04  -2.78168105808976E-16
      3.83333333333333E-01
     -2.68333333333333E-01  -2.68333333333333E-01   0.00000000000000E+00   0.00000000000000E+00   0.00000000000000E+00
      0.00000000000000E+00   0.00000000000000E+00   2.49248292267747E-16   0.00000000000000E+00   0.00000000000000E+00
      0.00000000000000E+00   0.00000000000000E+00   1.28370932570133E-04  -1.75466513534671E-12   1.28370930815468E-04
     -2.18160313843112E-18  -7.00000000000000E-01  -7.00000000000000E-01   0.00000000000000E+00   0.00000000000000E+00
     -1.28370932567190E-04  -7.20388103445187E-16  -1.28370932567911E-04  -2.73843402807730E-16
      4.00000000000000E-01
     -2.80000000000000E-01  -2.80000000000000E-01   0.00000000000000E+00   0.00000000000000E+00   0.00000000000000E+00
      0.00000000000000E+00   0.00000000000000E+00   2.36646018698107E-16   0.00000000000000E+00   0.00000000000000E+00
      0.00000000000000E+00   0.00000000000000E+00   1.49424208247983E-04  -8.89724189335545E-13   1.49424207358259E-04
      2.20335178289050E-18  -7.00000000000000E-01  -7.00000000000000E-01   0.00000000000000E+00   0.00000000000000E+00
     -1.49424208255331E-04   7.95104174028825E-15  -1.49424208247380E-04  -2.69514118076064E-16
      4.16666666666667E-01
     -2.91666666666667E-01  -2.91666666666667E-01   0.00000000000000E+00   0.00000000000000E+00   0.00000000000000E+00
      0.00000000000000E+00   0.00000000000000E+00   2.23771285475350E-16   0.00000000000000E+00   0.00000000000000E+00
      0.00000000000000E+00   0.00000000000000E+00   1.72032958987542E-04  -8.08780533206988E-13   1.72032958178762E-04
      6.55324476633447E-18  -7.00000000000000E-01  -7.00000000000000E-01   0.00000000000000E+00   0.00000000000000E+00
     -1.72032958991457E-04   1.25300344814047E-14  -1.72032958978927E-04  -2.65180212142278E-16
      4.33333333333333E-01
     -3.03333333333333E-01  -3.03333333333333E-01   0.00000000000000E+00   0.00000000000000E+00   0.00000000000000E+00
      0.00000000000000E+00   0.00000000000000E+00   2.10653981561977E-16   0.00000000000000E+00   0.00000000000000E+00
      0.00000000000000E+00   0.00000000000000E+00   1.96336202586500E-04  -4.43723537281812E-13   1.96336202142777E-04
      1.08719426834023E-17  -7.00000000000000E-01  -7.00000000000000E-01   0.00000000000000E+00   0.00000000000000E+00
     -1.96336202591329E-04   2.72816516875041E-15  -1.96336202588601E-04  -2.60840285343130E-16
      4.50000000000000E-01
     -3.15000000000000E-01  -3.15000000000000E-01   0.00000000000000E+00   0.00000000000000E+00   0.00000000000000E+00
      0.00000000000000E+00   0.00000000000000E+00   1.97254232941108E-16   0.00000000000000E+00   0.00000000000000E+00
      0.00000000000000E+00   0.00000000000000E+00   2.21889421406642E-04  -6.27095305969521E-13   2.21889420779547E-04
      1.51589675230497E-17  -7.00000000000000E-01  -7.00000000000000E-01   0.00000000000000E+00   0.00000000000000E+00
     -2.21889421420693E-04  -1.25776903861171E-15  -2.21889421421951E-04  -2.56497392453244E-16
      4.66666666666667E-01
     -3.26666666666667E-01  -3.26666666666667E-01   0.00000000000000E+00   0.00000000000000E+00   0.00000000000000E+00
      0.00000000000000E+00   0.00000000000000E+00   1.83650173855497E-16   0.00000000000000E+00   0.00000000000000E+00
      0.00000000000000E+00   0.00000000000000E+00   2.48962907694233E-04  -2.98475726560408E-13   2.48962907395757E-04
      1.94183448303655E-17  -7.00000000000000E-01  -7.00000000000000E-01   0.00000000000000E+00   0.00000000000000E+00
     -2.48962907693950E-04   2.70164562222159E-16  -2.48962907693680E-04  -2.52146920125347E-16
      4.83333333333333E-01
     -3.38333333333333E-01  -3.38333333333333E-01   0.00000000000000E+00   0.00000000000000E+00   0.00000000000000E+00
      0.00000000000000E+00   0.00000000000000E+00   1.69815632419150E-16   0.00000000000000E+00   0.00000000000000E+00
      0.00000000000000E+00   0.00000000000000E+00   2.77299313894284E-04  -2.81665945858448E-13   2.77299313612618E-04
      2.36505629194597E-17  -7.00000000000000E-01  -7.00000000000000E-01   0.00000000000000E+00   0.00000000000000E+00
     -2.77299313895862E-04  -2.24282526016332E-15  -2.77299313898105E-04  -2.47791690290094E-16
      5.00000000000000E-01
     -3.50000000000000E-01  -3.50000000000000E-01   0.00000000000000E+00   0.00000000000000E+00   0.00000000000000E+00
      0.00000000000000E+00   0.00000000000000E+00   1.55738366152865E-16   0.00000000000000E+00   0.00000000000000E+00
      0.00000000000000E+00   0.00000000000000E+00   3.06678075055763E-04  -2.52222751604030E-13   3.06678074803540E-04
      2.78564655137713E-17  -7.00000000000000E-01  -7.00000000000000E-01   0.00000000000000E+00   0.00000000000000E+00
     -3.06678075069316E-04   6.62068814008756E-15  -3.06678075062696E-04  -2.43433349005998E-16
      5.16666666666667E-01
     -3.61666666666667E-01  -3.61666666666667E-01   0.00000000000000E+00   0.00000000000000E+00   0.00000000000000E+00
      0.00000000000000E+00   0.00000000000000E+00   1.41492562103142E-16   0.00000000000000E+00   0.00000000000000E+00
      0.00000000000000E+00   0.00000000000000E+00   3.37282264609886E-04  -1.84995668857891E-13   3.37282264424890E-04
      3.20389892836114E-17  -7.00000000000000E-01  -7.00000000000000E-01   0.00000000000000E+00   0.00000000000000E+00
     -3.37282264610695E-04   4.56530471946950E-16  -3.37282264610238E-04  -2.39066388354129E-16
      5.33333333333333E-01
     -3.73333333333333E-01  -3.73333333333333E-01   0.00000000000000E+00   0.00000000000000E+00   0.00000000000000E+00
      0.00000000000000E+00   0.00000000000000E+00   1.27067535941270E-16   0.00000000000000E+00   0.00000000000000E+00
      0.00000000000000E+00   0.00000000000000E+00   3.68962873595779E-04  -1.59036048241072E-13   3.68962873436742E-04
      3.61991186025855E-17  -7.00000000000000E-01  -7.00000000000000E-01   0.00000000000000E+00   0.00000000000000E+00
     -3.68962873596802E-04  -6.99899426699516E-16  -3.68962873597502E-04  -2.34692837649969E-16
      5.50000000000000E-01
     -3.85000000000000E-01  -3.85000000000000E-01   0.00000000000000E+00   0.00000000000000E+00   0.00000000000000E+00
      0.00000000000000E+00   0.00000000000000E+00   1.12417745073719E-16   0.00000000000000E+00   0.00000000000000E+00
      0.00000000000000E+00   0.00000000000000E+00   4.01434134455995E-04  -1.65375816059975E-13   4.01434134290620E-04
      4.03372276288676E-17  -7.00000000000000E-01  -7.00000000000000E-01   0.00000000000000E+00   0.00000000000000E+00
     -4.01434134470768E-04   1.30085507298146E-14  -4.01434134457759E-04  -2.30318326696464E-16
      5.66666666666667E-01
     -3.96666666666667E-01  -3.96666666666667E-01   0.00000000000000E+00   0.00000000000000E+00   0.00000000000000E+00
      0.00000000000000E+00   0.00000000000000E+00   9.76066111416278E-17   0.00000000000000E+00   0.00000000000000E+00
      0.00000000000000E+00   0.00000000000000E+00   4.34808152870848E-04  -1.20472991016165E-13   4.34808152750375E-04
      4.44555296562162E-17  -7.00000000000000E-01  -7.00000000000000E-01   0.00000000000000E+00   0.00000000000000E+00
     -4.34808152870531E-04  -4.09639043685869E-16  -4.34808152870941E-04  -2.25936769505460E-16
      5.83333333333333E-01
     -4.08333333333333E-01  -4.08333333333333E-01   0.00000000000000E+00   0.00000000000000E+00   0.00000000000000E+00
      0.00000000000000E+00   0.00000000000000E+00   8.26676498146454E-17   0.00000000000000E+00   0.00000000000000E+00
      0.00000000000000E+00   0.00000000000000E+00   4.69110722513332E-04  -1.08350413635241E-13   4.69110722404981E-04
      4.85556567923498E-17  -7.00000000000000E-01  -7.00000000000000E-01   0.00000000000000E+00   0.00000000000000E+00
     -4.69110722513194E-04  -5.93446080844221E-16  -4.69110722513787E-04  -2.21545129057545E-16
      6.00000000000000E-01
     -4.20000000000000E-01  -4.20000000000000E-01   0.00000000000000E+00   0.00000000000000E+00   0.00000000000000E+00
      0.00000000000000E+00   0.00000000000000E+00   6.75723119029097E-17   0.00000000000000E+00   0.00000000000000E+00
      0.00000000000000E+00   0.00000000000000E+00   5.04169857441303E-04  -9.48329427914817E-14   5.04169857346470E-04
      5.26383248599878E-17  -7.00000000000000E-01  -7.00000000000000E-01   0.00000000000000E+00   0.00000000000000E+00
     -5.04169857443242E-04   1.06198520371500E-16  -5.04169857443136E-04  -2.17148626581548E-16
      6.16666666666667E-01
     -4.31666666666667E-01  -4.31666666666667E-01   0.00000000000000E+00   0.00000000000000E+00   0.00000000000000E+00
      0.00000000000000E+00   0.00000000000000E+00   5.22999281367677E-17   0.00000000000000E+00   0.00000000000000E+00
      0.00000000000000E+00   0.00000000000000E+00   5.39832555172202E-04  -8.35792884571128E-14   5.39832555088622E-04
      5.67043379198670E-17  -7.00000000000000E-01  -7.00000000000000E-01   0.00000000000000E+00   0.00000000000000E+00
     -5.39832555173975E-04  -1.51633196283554E-15  -5.39832555175492E-04  -2.12751007807585E-16
      6.33333333333334E-01
     -4.43333333333334E-01  -4.43333333333334E-01   0.00000000000000E+00   0.00000000000000E+00   0.00000000000000E+00
      0.00000000000000E+00   0.00000000000000E+00   3.68840564815988E-17   0.00000000000000E+00   0.00000000000000E+00
      0.00000000000000E+00   0.00000000000000E+00   5.76120696619873E-04  -7.18493405188316E-14   5.76120696548024E-04
      6.07551377198763E-17  -7.00000000000000E-01  -7.00000000000000E-01   0.00000000000000E+00   0.00000000000000E+00
     -5.76120696619778E-04  -3.59473815806590E-16  -5.76120696620138E-04  -2.08348088741781E-16
      6.50000000000000E-01
     -4.55000000000000E-01  -4.55000000000000E-01   0.00000000000000E+00   0.00000000000000E+00   0.00000000000000E+00
      0.00000000000000E+00   0.00000000000000E+00   2.13623008330684E-17   0.00000000000000E+00   0.00000000000000E+00
      0.00000000000000E+00   0.00000000000000E+00   6.13083010332076E-04  -6.45714539167943E-14   6.13083010267504E-04
      6.47921520429401E-17  -7.00000000000000E-01  -7.00000000000000E-01   0.00000000000000E+00   0.00000000000000E+00
     -6.13083010332038E-04   2.72861465258988E-16  -6.13083010331765E-04  -2.03935334660337E-16
      6.66666666666667E-01
     -4.66666666666667E-01  -4.66666666666667E-01   0.00000000000000E+00   0.00000000000000E+00   0.00000000000000E+00
      0.00000000000000E+00   0.00000000000000E+00   5.74347969120954E-18   0.00000000000000E+00   0.00000000000000E+00
      0.00000000000000E+00   0.00000000000000E+00   6.50686260272090E-04  -5.66949185469520E-14   6.50686260215395E-04
      6.88164160079658E-17  -7.00000000000000E-01  -7.00000000000000E-01   0.00000000000000E+00   0.00000000000000E+00
     -6.50686260272101E-04   4.28156362174961E-16  -6.50686260271673E-04  -1.99512303220638E-16
      6.83333333333334E-01
     -4.78333333333334E-01  -4.78333333333334E-01   0.00000000000000E+00   0.00000000000000E+00   0.00000000000000E+00
      0.00000000000000E+00   0.00000000000000E+00  -1.00134692206528E-17   0.00000000000000E+00   0.00000000000000E+00
      0.00000000000000E+00   0.00000000000000E+00   6.88755247025106E-04  -5.06092188138775E-14   6.88755246974497E-04
      7.28284291434589E-17  -7.00000000000000E-01  -7.00000000000000E-01   0.00000000000000E+00   0.00000000000000E+00
     -6.88755247024013E-04   1.60602345464567E-15  -6.88755247022407E-04  -1.95088538278799E-16
      7.00000000000001E-01
     -4.90000000000000E-01  -4.90000000000000E-01   0.00000000000000E+00   0.00000000000000E+00   0.00000000000000E+00
      0.00000000000000E+00   0.00000000000000E+00  -2.58970889998846E-17   0.00000000000000E+00   0.00000000000000E+00
      0.00000000000000E+00   0.00000000000000E+00   7.27263423419249E-04  -4.20358950117837E-14   7.27263423377213E-04
      7.68291703246036E-17  -7.00000000000000E-01  -7.00000000000000E-01   0.00000000000000E+00   0.00000000000000E+00
     -7.27263423420732E-04   1.47812937572330E-15  -7.27263423419254E-04  -1.90662313848587E-16
      7.16666666666667E-01
     -5.01666666666667E-01  -5.01666666666667E-01   0.00000000000000E+00   0.00000000000000E+00   0.00000000000000E+00
      0.00000000000000E+00   0.00000000000000E+00  -4.18933927517357E-17   0.00000000000000E+00   0.00000000000000E+00
      0.00000000000000E+00   0.00000000000000E+00   7.66195258932000E-04  -3.64985655628644E-14   7.66195258895501E-04
      8.08195868191684E-17  -7.00000000000000E-01  -7.00000000000000E-01   0.00000000000000E+00   0.00000000000000E+00
     -7.66195258932209E-04   4.97603384994716E-16  -7.66195258931712E-04  -1.86231440143053E-16
      7.33333333333334E-01
     -5.13333333333334E-01  -5.13333333333334E-01   0.00000000000000E+00   0.00000000000000E+00   0.00000000000000E+00
      0.00000000000000E+00   0.00000000000000E+00  -5.79813455763495E-17   0.00000000000000E+00   0.00000000000000E+00
      0.00000000000000E+00   0.00000000000000E+00   8.05561001596943E-04  -3.18880611732068E-14   8.05561001565055E-04
      8.48006380024557E-17  -7.00000000000000E-01  -7.00000000000000E-01   0.00000000000000E+00   0.00000000000000E+00
     -8.05561001596831E-04   1.54990522032552E-16  -8.05561001596676E-04  -1.81792669313748E-16
      7.50000000000001E-01
     -5.25000000000000E-01  -5.25000000000000E-01   0.00000000000000E+00   0.00000000000000E+00   0.00000000000000E+00
      0.00000000000000E+00   0.00000000000000E+00  -7.41409803266404E-17   0.00000000000000E+00   0.00000000000000E+00
      0.00000000000000E+00   0.00000000000000E+00   8.45374737081708E-04  -2.78127433881608E-14   8.45374737053896E-04
      8.87732240288497E-17  -7.00000000000000E-01  -7.00000000000000E-01   0.00000000000000E+00   0.00000000000000E+00
     -8.45374737081487E-04  -1.09758998658967E-16  -8.45374737081597E-04  -1.77342782085568E-16
      7.66666666666667E-01
     -5.36666666666667E-01  -5.36666666666667E-01   0.00000000000000E+00   0.00000000000000E+00   0.00000000000000E+00
      0.00000000000000E+00   0.00000000000000E+00  -9.03847630260695E-17   0.00000000000000E+00   0.00000000000000E+00
      0.00000000000000E+00   0.00000000000000E+00   8.85566063811076E-04  -2.37118581129074E-14   8.85566063787364E-04
      9.27379358242838E-17  -7.00000000000000E-01  -7.00000000000000E-01   0.00000000000000E+00   0.00000000000000E+00
     -8.85566063810269E-04  -6.42287631904899E-16  -8.85566063810911E-04  -1.72886944770490E-16
      7.83333333333334E-01
     -5.48333333333334E-01  -5.48333333333334E-01   0.00000000000000E+00   0.00000000000000E+00   0.00000000000000E+00
      0.00000000000000E+00   0.00000000000000E+00  -1.06732647041143E-16   0.00000000000000E+00   0.00000000000000E+00
      0.00000000000000E+00   0.00000000000000E+00   9.26042517245370E-04  -2.05124038296069E-14   9.26042517224857E-04
      9.66952307607516E-17  -7.00000000000000E-01  -7.00000000000000E-01   0.00000000000000E+00   0.00000000000000E+00
     -9.26042517243574E-04   3.36581993179020E-16  -9.26042517243238E-04  -1.68432051302077E-16
      8.00000000000001E-01
     -5.60000000000000E-01  -5.60000000000000E-01   0.00000000000000E+00   0.00000000000000E+00   0.00000000000000E+00
      0.00000000000000E+00   0.00000000000000E+00  -1.23170723942267E-16   0.00000000000000E+00   0.00000000000000E+00