DF-ISE text

Info {
  version   = 1.0
  type      = xyplot
  datasets  = [
    "time"
    "gate OuterVoltage" "gate InnerVoltage" "gate QuasiFermiPotential" "gate DisplacementCurrent" "gate eCurrent"
    "gate hCurrent" "gate TotalCurrent" "gate Charge" "source OuterVoltage" "source InnerVoltage"
    "source QuasiFermiPotential" "source DisplacementCurrent" "source eCurrent" "source hCurrent" "source TotalCurrent"
    "source Charge" "drain OuterVoltage" "drain InnerVoltage" "drain QuasiFermiPotential" "drain DisplacementCurrent"
    "drain eCurrent" "drain hCurrent" "drain TotalCurrent" "drain Charge" ]
  functions = [
    Time
    OuterVoltage InnerVoltage QuasiFermiPotential DisplacementCurrent eCurrent
    hCurrent TotalCurrent Charge OuterVoltage InnerVoltage
    QuasiFermiPotential DisplacementCurrent eCurrent hCurrent TotalCurrent
    Charge OuterVoltage InnerVoltage QuasiFermiPotential DisplacementCurrent
    eCurrent hCurrent TotalCurrent Charge ]
}

Data {
      0.00000000000000E+00
      0.00000000000000E+00   0.00000000000000E+00   0.00000000000000E+00   0.00000000000000E+00   0.00000000000000E+00
      0.00000000000000E+00   0.00000000000000E+00  -4.89162846366211E-16   0.00000000000000E+00   0.00000000000000E+00
      0.00000000000000E+00   0.00000000000000E+00  -2.09711282768004E-08  -1.00484531847134E-21  -2.09711282768014E-08
      1.20928445554584E-16   7.00000000000000E-01   7.00000000000000E-01   0.00000000000000E+00   0.00000000000000E+00
      2.09726886082640E-08  -4.12883599537242E-23   2.09726886082640E-08   3.69623990137402E-16
      1.66666666666667E-02
      1.66666666666667E-03   1.66666666666667E-03   0.00000000000000E+00   0.00000000000000E+00   0.00000000000000E+00
      0.00000000000000E+00   0.00000000000000E+00  -4.87969410343334E-16   0.00000000000000E+00   0.00000000000000E+00
      0.00000000000000E+00   0.00000000000000E+00  -2.22357260240185E-08   6.83509427711266E-22  -2.22357260240179E-08
      1.20307633921732E-16   7.00000000000000E-01   7.00000000000000E-01   0.00000000000000E+00   0.00000000000000E+00
      2.22344968753660E-08  -5.70813425958528E-21   2.22344968753603E-08   3.69055738460151E-16
      3.33333333333333E-02
      3.33333333333333E-03   3.33333333333333E-03   0.00000000000000E+00   0.00000000000000E+00   0.00000000000000E+00
      0.00000000000000E+00   0.00000000000000E+00  -4.86775607114914E-16   0.00000000000000E+00   0.00000000000000E+00
      0.00000000000000E+00   0.00000000000000E+00  -2.35762950901993E-08   1.69141837318788E-20  -2.35762950901824E-08
      1.19686632001303E-16   7.00000000000000E-01   7.00000000000000E-01   0.00000000000000E+00   0.00000000000000E+00
      2.35741783615979E-08  -9.29459460412941E-21   2.35741783615886E-08   3.68487402416347E-16
      5.00000000000000E-02
      5.00000000000000E-03   5.00000000000000E-03   0.00000000000000E+00   0.00000000000000E+00   0.00000000000000E+00
      0.00000000000000E+00   0.00000000000000E+00  -4.85581434437496E-16   0.00000000000000E+00   0.00000000000000E+00
      0.00000000000000E+00   0.00000000000000E+00  -2.49971102501290E-08   7.31703543310634E-19  -2.49971102493973E-08
      1.19065439745286E-16   7.00000000000000E-01   7.00000000000000E-01   0.00000000000000E+00   0.00000000000000E+00
      2.49942167046538E-08  -9.97977188970108E-20   2.49942167045540E-08   3.67918982279327E-16
      6.66666666666667E-02
      6.66666666666667E-03   6.66666666666667E-03   0.00000000000000E+00   0.00000000000000E+00   0.00000000000000E+00
      0.00000000000000E+00   0.00000000000000E+00  -4.84386887230146E-16   0.00000000000000E+00   0.00000000000000E+00
      0.00000000000000E+00   0.00000000000000E+00  -2.65037696875069E-08   1.08960079696497E-21  -2.65037696875058E-08
      1.18444057130579E-16   7.00000000000000E-01   7.00000000000000E-01   0.00000000000000E+00   0.00000000000000E+00
      2.65033700706874E-08   3.12144065382076E-22   2.65033700706877E-08   3.67350475532089E-16
      8.33333333333333E-02
      8.33333333333333E-03   8.33333333333333E-03   0.00000000000000E+00   0.00000000000000E+00   0.00000000000000E+00
      0.00000000000000E+00   0.00000000000000E+00  -4.83191966042674E-16   0.00000000000000E+00   0.00000000000000E+00
      0.00000000000000E+00   0.00000000000000E+00  -2.81003939099993E-08   2.48116271061072E-19  -2.81003939097512E-08
      1.17822484136472E-16   7.00000000000000E-01   7.00000000000000E-01   0.00000000000000E+00   0.00000000000000E+00
      2.81011069481203E-08  -6.99849965677688E-20   2.81011069480504E-08   3.66781885361858E-16
      1.00000000000000E-01
      1.00000000000000E-02   1.00000000000000E-02   0.00000000000000E+00   0.00000000000000E+00   0.00000000000000E+00
      0.00000000000000E+00   0.00000000000000E+00  -4.81996665138022E-16   0.00000000000000E+00   0.00000000000000E+00
      0.00000000000000E+00   0.00000000000000E+00  -2.97931927965806E-08   3.86830729755381E-22  -2.97931927965802E-08
      1.17200720773270E-16   7.00000000000000E-01   7.00000000000000E-01   0.00000000000000E+00   0.00000000000000E+00
      2.97890157238210E-08   2.77268595538876E-22   2.97890157238213E-08   3.66213208708319E-16
      1.16666666666667E-01
      1.16666666666667E-02   1.16666666666667E-02   0.00000000000000E+00   0.00000000000000E+00   0.00000000000000E+00
      0.00000000000000E+00   0.00000000000000E+00  -4.80800984713540E-16   0.00000000000000E+00   0.00000000000000E+00
      0.00000000000000E+00   0.00000000000000E+00  -3.15871493298018E-08   1.81937118042236E-19  -3.15871493296198E-08
      1.16578767054294E-16   7.00000000000000E-01   7.00000000000000E-01   0.00000000000000E+00   0.00000000000000E+00
      3.15830747152509E-08  -6.05347549278507E-20   3.15830747151903E-08   3.65644448485843E-16
      1.33333333333333E-01
      1.33333333333333E-02   1.33333333333333E-02   0.00000000000000E+00   0.00000000000000E+00   0.00000000000000E+00
      0.00000000000000E+00   0.00000000000000E+00  -4.79604919541841E-16   0.00000000000000E+00   0.00000000000000E+00
      0.00000000000000E+00   0.00000000000000E+00  -3.34888733665184E-08   2.75743580042354E-19  -3.34888733662427E-08
      1.15956623025055E-16   7.00000000000000E-01   7.00000000000000E-01   0.00000000000000E+00   0.00000000000000E+00
      3.34842067510271E-08  -5.58933988820154E-20   3.34842067509712E-08   3.65075602289758E-16
      1.50000000000000E-01
      1.50000000000000E-02   1.50000000000000E-02   0.00000000000000E+00   0.00000000000000E+00   0.00000000000000E+00
      0.00000000000000E+00   0.00000000000000E+00  -4.78408467402171E-16   0.00000000000000E+00   0.00000000000000E+00
      0.00000000000000E+00   0.00000000000000E+00  -3.55045996094365E-08   1.90818335181095E-19  -3.55045996092457E-08
      1.15334288741071E-16   7.00000000000000E-01   7.00000000000000E-01   0.00000000000000E+00   0.00000000000000E+00
      3.54981619746996E-08  -5.24078789167277E-20   3.54981619746472E-08   3.64506670756488E-16
      1.66666666666667E-01
      1.66666666666667E-02   1.66666666666667E-02   0.00000000000000E+00   0.00000000000000E+00   0.00000000000000E+00
      0.00000000000000E+00   0.00000000000000E+00  -4.77211625319227E-16   0.00000000000000E+00   0.00000000000000E+00
      0.00000000000000E+00   0.00000000000000E+00  -3.76411223136444E-08   1.95586902198569E-19  -3.76411223134488E-08
      1.14711764280735E-16   7.00000000000000E-01   7.00000000000000E-01   0.00000000000000E+00   0.00000000000000E+00
      3.76323061908139E-08  -4.90424268351471E-20   3.76323061907649E-08   3.63937653850628E-16
      1.83333333333333E-01
      1.83333333333333E-02   1.83333333333333E-02   0.00000000000000E+00   0.00000000000000E+00   0.00000000000000E+00
      0.00000000000000E+00   0.00000000000000E+00  -4.76014390200894E-16   0.00000000000000E+00   0.00000000000000E+00
      0.00000000000000E+00   0.00000000000000E+00  -3.99056349165335E-08   1.77915278974985E-19  -3.99056349163555E-08
      1.14089049742737E-16   7.00000000000000E-01   7.00000000000000E-01   0.00000000000000E+00   0.00000000000000E+00
      3.98939667474618E-08  -4.59534027426173E-20   3.98939667474158E-08   3.63368551487698E-16
      2.00000000000000E-01
      2.00000000000000E-02   2.00000000000000E-02   0.00000000000000E+00   0.00000000000000E+00   0.00000000000000E+00
      0.00000000000000E+00   0.00000000000000E+00  -4.74816758877706E-16   0.00000000000000E+00   0.00000000000000E+00
      0.00000000000000E+00   0.00000000000000E+00  -4.23057610429901E-08   1.64330727743959E-19  -4.23057610428257E-08
      1.13466145245973E-16   7.00000000000000E-01   7.00000000000000E-01   0.00000000000000E+00   0.00000000000000E+00
      4.22904515910498E-08  -4.30980238568774E-20   4.22904515910067E-08   3.62799363582658E-16
      2.16666666666667E-01
      2.16666666666667E-02   2.16666666666667E-02   0.00000000000000E+00   0.00000000000000E+00   0.00000000000000E+00
      0.00000000000000E+00   0.00000000000000E+00  -4.73618728097193E-16   0.00000000000000E+00   0.00000000000000E+00
      0.00000000000000E+00   0.00000000000000E+00  -4.48495724964800E-08   1.57741777755922E-19  -4.48495724963222E-08
      1.12843050931647E-16   7.00000000000000E-01   7.00000000000000E-01   0.00000000000000E+00   0.00000000000000E+00
      4.48292281823448E-08  -4.04472230159216E-20   4.48292281823044E-08   3.62230090048768E-16
      2.33333333333333E-01
      2.33333333333333E-02   2.33333333333333E-02   0.00000000000000E+00   0.00000000000000E+00   0.00000000000000E+00
      0.00000000000000E+00   0.00000000000000E+00  -4.72420294526130E-16   0.00000000000000E+00   0.00000000000000E+00
      0.00000000000000E+00   0.00000000000000E+00  -4.75456192159338E-08   1.43972185731965E-19  -4.75456192157898E-08
      1.12219766963402E-16   7.00000000000000E-01   7.00000000000000E-01   0.00000000000000E+00   0.00000000000000E+00
      4.75179918373794E-08  -3.79657190069933E-20   4.75179918373414E-08   3.61660730799762E-16
      2.50000000000000E-01
      2.50000000000000E-02   2.50000000000000E-02   0.00000000000000E+00   0.00000000000000E+00   0.00000000000000E+00
      0.00000000000000E+00   0.00000000000000E+00  -4.71221454745250E-16   0.00000000000000E+00   0.00000000000000E+00
      0.00000000000000E+00   0.00000000000000E+00  -5.04029511359529E-08   1.26296316775168E-19  -5.04029511358267E-08
      1.11596293529376E-16   7.00000000000000E-01   7.00000000000000E-01   0.00000000000000E+00   0.00000000000000E+00
      5.03646204775421E-08  -3.56339546376905E-20   5.03646204775065E-08   3.61091285750789E-16
      2.66666666666667E-01
      2.66666666666667E-02   2.66666666666667E-02   0.00000000000000E+00   0.00000000000000E+00   0.00000000000000E+00
      0.00000000000000E+00   0.00000000000000E+00  -4.70022205238932E-16   0.00000000000000E+00   0.00000000000000E+00
      0.00000000000000E+00   0.00000000000000E+00  -5.34311618663393E-08   1.22429132443520E-19  -5.34311618662168E-08
      1.10972630840957E-16   7.00000000000000E-01   7.00000000000000E-01   0.00000000000000E+00   0.00000000000000E+00
      5.33769745385200E-08  -3.34209973027313E-20   5.33769745384865E-08   3.60521754815802E-16
      2.83333333333333E-01
      2.83333333333333E-02   2.83333333333333E-02   0.00000000000000E+00   0.00000000000000E+00   0.00000000000000E+00
      0.00000000000000E+00   0.00000000000000E+00  -4.68822542388237E-16   0.00000000000000E+00   0.00000000000000E+00
      0.00000000000000E+00   0.00000000000000E+00  -5.66403980737146E-08   1.11971059101100E-19  -5.66403980736026E-08
      1.10348779135538E-16   7.00000000000000E-01   7.00000000000000E-01   0.00000000000000E+00   0.00000000000000E+00
      5.65624737776841E-08  -3.13249211607332E-20   5.65624737776527E-08   3.59952137905412E-16
      3.00000000000000E-01
      3.00000000000000E-02   3.00000000000000E-02   0.00000000000000E+00   0.00000000000000E+00   0.00000000000000E+00
      0.00000000000000E+00   0.00000000000000E+00  -4.67622462459478E-16   0.00000000000000E+00   0.00000000000000E+00
      0.00000000000000E+00   0.00000000000000E+00  -6.00414112055990E-08   1.03510426270683E-19  -6.00414112054955E-08
      1.09724738677011E-16   7.00000000000000E-01   7.00000000000000E-01   0.00000000000000E+00   0.00000000000000E+00
      5.99273716462556E-08  -2.93342820909666E-20   5.99273716462262E-08   3.59382434921359E-16
      3.16666666666667E-01
      3.16666666666667E-02   3.16666666666667E-02   0.00000000000000E+00   0.00000000000000E+00   0.00000000000000E+00
      0.00000000000000E+00   0.00000000000000E+00  -4.66421961587059E-16   0.00000000000000E+00   0.00000000000000E+00
      0.00000000000000E+00   0.00000000000000E+00  -6.36455836160225E-08   9.62544496868543E-20  -6.36455836159263E-08
      1.09100509756945E-16   7.00000000000000E-01   7.00000000000000E-01   0.00000000000000E+00   0.00000000000000E+00
      6.34756403354904E-08  -2.74488265224732E-20   6.34756403354630E-08   3.58812645751068E-16
      3.33333333333333E-01
      3.33333333333333E-02   3.33333333333333E-02   0.00000000000000E+00   0.00000000000000E+00   0.00000000000000E+00
      0.00000000000000E+00   0.00000000000000E+00  -4.65221035749091E-16   0.00000000000000E+00   0.00000000000000E+00
      0.00000000000000E+00   0.00000000000000E+00  -6.74649670586100E-08   9.14960464585973E-20  -6.74649670585185E-08
      1.08476092693977E-16   7.00000000000000E-01   7.00000000000000E-01   0.00000000000000E+00   0.00000000000000E+00
      6.72075151933703E-08  -2.56754950924196E-20   6.72075151933446E-08   3.58242770259280E-16
      3.50000000000000E-01
      3.50000000000000E-02   3.50000000000000E-02   0.00000000000000E+00   0.00000000000000E+00   0.00000000000000E+00
      0.00000000000000E+00   0.00000000000000E+00  -4.64019680672013E-16   0.00000000000000E+00   0.00000000000000E+00
      0.00000000000000E+00   0.00000000000000E+00  -7.15123210005157E-08   8.41975237099036E-20  -7.15123210004315E-08
      1.07851487838168E-16   7.00000000000000E-01   7.00000000000000E-01   0.00000000000000E+00   0.00000000000000E+00
      7.11184855312624E-08  -2.40330824614086E-20   7.11184855312384E-08   3.57672808202851E-16
      3.66666666666667E-01
      3.66666666666667E-02   3.66666666666667E-02   0.00000000000000E+00   0.00000000000000E+00   0.00000000000000E+00
      0.00000000000000E+00   0.00000000000000E+00  -4.62817890825920E-16   0.00000000000000E+00   0.00000000000000E+00
      0.00000000000000E+00   0.00000000000000E+00  -7.58013919039601E-08   5.13738089963066E-22  -7.58013919039596E-08
      1.07226695570482E-16   7.00000000000000E-01   7.00000000000000E-01   0.00000000000000E+00   0.00000000000000E+00
      7.54990605442722E-08  -1.50121786020536E-22   7.54990605442720E-08   3.57102757984255E-16
      3.83333333333333E-01
      3.83333333333333E-02   3.83333333333333E-02   0.00000000000000E+00   0.00000000000000E+00   0.00000000000000E+00
      0.00000000000000E+00   0.00000000000000E+00  -4.61615662908098E-16   0.00000000000000E+00   0.00000000000000E+00
      0.00000000000000E+00   0.00000000000000E+00  -8.03460116485829E-08   4.32081702802548E-22  -8.03460116485825E-08
      1.06601716300069E-16   7.00000000000000E-01   7.00000000000000E-01   0.00000000000000E+00   0.00000000000000E+00
      8.00037011570707E-08  -1.83744566013375E-22   8.00037011570706E-08   3.56532621090114E-16
      4.00000000000000E-01
      4.00000000000000E-02   4.00000000000000E-02   0.00000000000000E+00   0.00000000000000E+00   0.00000000000000E+00
      0.00000000000000E+00   0.00000000000000E+00  -4.60412991515355E-16   0.00000000000000E+00   0.00000000000000E+00
      0.00000000000000E+00   0.00000000000000E+00  -8.51615542498789E-08   3.25260484734658E-22  -8.51615542498786E-08
      1.05976550471918E-16   7.00000000000000E-01   7.00000000000000E-01   0.00000000000000E+00   0.00000000000000E+00
      8.46723523727516E-08  -2.23628656088613E-22   8.46723523727514E-08   3.55962396555893E-16
      4.16666666666667E-01
      4.16666666666667E-02   4.16666666666667E-02   0.00000000000000E+00   0.00000000000000E+00   0.00000000000000E+00
      0.00000000000000E+00   0.00000000000000E+00  -4.59209871927395E-16   0.00000000000000E+00   0.00000000000000E+00
      0.00000000000000E+00   0.00000000000000E+00  -9.02640509373498E-08   5.28559293383333E-23  -9.02640509373497E-08
      1.05351198562852E-16   7.00000000000000E-01   7.00000000000000E-01   0.00000000000000E+00   0.00000000000000E+00
      8.96729311261792E-08  -2.67011037409699E-22   8.96729311261789E-08   3.55392084070133E-16
      4.33333333333333E-01
      4.33333333333333E-02   4.33333333333333E-02   0.00000000000000E+00   0.00000000000000E+00   0.00000000000000E+00
      0.00000000000000E+00   0.00000000000000E+00  -4.58006301056885E-16   0.00000000000000E+00   0.00000000000000E+00
      0.00000000000000E+00   0.00000000000000E+00  -9.56702159406006E-08   6.60899246837615E-20  -9.56702159405346E-08
      1.04725661081126E-16   7.00000000000000E-01   7.00000000000000E-01   0.00000000000000E+00   0.00000000000000E+00
      9.49658302384974E-08  -1.69850397707876E-20   9.49658302384804E-08   3.54821684951560E-16
      4.50000000000000E-01
      4.50000000000000E-02   4.50000000000000E-02   0.00000000000000E+00   0.00000000000000E+00   0.00000000000000E+00
      0.00000000000000E+00   0.00000000000000E+00  -4.56802272336066E-16   0.00000000000000E+00   0.00000000000000E+00
      0.00000000000000E+00   0.00000000000000E+00  -1.01398499438229E-07   4.66996183933753E-20  -1.01398499438183E-07
      1.04099938578224E-16   7.00000000000000E-01   7.00000000000000E-01   0.00000000000000E+00   0.00000000000000E+00
      1.00791878500330E-07  -1.57079956486858E-20   1.00791878500314E-07   3.54251197018505E-16
      4.66666666666667E-01
      4.66666666666667E-02   4.66666666666667E-02   0.00000000000000E+00   0.00000000000000E+00   0.00000000000000E+00
      0.00000000000000E+00   0.00000000000000E+00  -4.55597782240369E-16   0.00000000000000E+00   0.00000000000000E+00
      0.00000000000000E+00   0.00000000000000E+00  -1.07467659985764E-07   4.38477094572343E-20  -1.07467659985720E-07
      1.03474031636246E-16   7.00000000000000E-01   7.00000000000000E-01   0.00000000000000E+00   0.00000000000000E+00
      1.07255744765775E-07  -1.46865444915296E-20   1.07255744765761E-07   3.53680621426625E-16
      4.83333333333333E-01
      4.83333333333333E-02   4.83333333333333E-02   0.00000000000000E+00   0.00000000000000E+00   0.00000000000000E+00
      0.00000000000000E+00   0.00000000000000E+00  -4.54392826058761E-16   0.00000000000000E+00   0.00000000000000E+00
      0.00000000000000E+00   0.00000000000000E+00  -1.13897811364064E-07   3.50050707889233E-20  -1.13897811364028E-07
      1.02847940878666E-16   7.00000000000000E-01   7.00000000000000E-01   0.00000000000000E+00   0.00000000000000E+00
      1.14290872347764E-07  -1.37435043767562E-20   1.14290872347750E-07   3.53109958350291E-16
      5.00000000000000E-01
      5.00000000000000E-02   5.00000000000000E-02   0.00000000000000E+00   0.00000000000000E+00   0.00000000000000E+00
      0.00000000000000E+00   0.00000000000000E+00  -4.53187399469110E-16   0.00000000000000E+00   0.00000000000000E+00
      0.00000000000000E+00   0.00000000000000E+00  -1.20710482591109E-07  -2.57618220787767E-22  -1.20710482591110E-07
      1.02221666967854E-16   7.00000000000000E-01   7.00000000000000E-01   0.00000000000000E+00   0.00000000000000E+00
      1.21331837736783E-07   2.14888524964773E-22   1.21331837736783E-07   3.52539208690692E-16
      5.16666666666667E-01
      5.16666666666667E-02   5.16666666666667E-02   0.00000000000000E+00   0.00000000000000E+00   0.00000000000000E+00
      0.00000000000000E+00   0.00000000000000E+00  -4.51981500354084E-16   0.00000000000000E+00   0.00000000000000E+00
      0.00000000000000E+00   0.00000000000000E+00  -1.27927669888727E-07   4.26111721920286E-22  -1.27927669888727E-07
      1.01595210601163E-16   7.00000000000000E-01   7.00000000000000E-01   0.00000000000000E+00   0.00000000000000E+00
      1.28333158197278E-07   2.24244862726123E-22   1.28333158197278E-07   3.51968375886279E-16
      5.33333333333333E-01
      5.33333333333333E-02   5.33333333333333E-02   0.00000000000000E+00   0.00000000000000E+00   0.00000000000000E+00
      0.00000000000000E+00   0.00000000000000E+00  -4.50775120621889E-16   0.00000000000000E+00   0.00000000000000E+00
      0.00000000000000E+00   0.00000000000000E+00  -1.35573218410548E-07   3.96925402861326E-20  -1.35573218410508E-07
      1.00968572539896E-16   7.00000000000000E-01   7.00000000000000E-01   0.00000000000000E+00   0.00000000000000E+00
      1.35831077469285E-07  -1.09849789862768E-20   1.35831077469274E-07   3.51397457266447E-16
      5.50000000000000E-01
      5.50000000000000E-02   5.50000000000000E-02   0.00000000000000E+00   0.00000000000000E+00   0.00000000000000E+00
      0.00000000000000E+00   0.00000000000000E+00  -4.49568252467652E-16   0.00000000000000E+00   0.00000000000000E+00
      0.00000000000000E+00   0.00000000000000E+00  -1.43672880661353E-07   2.14587089466085E-20  -1.43672880661331E-07
      1.00341753579170E-16   7.00000000000000E-01   7.00000000000000E-01   0.00000000000000E+00   0.00000000000000E+00
      1.43901128477787E-07  -1.03334542159599E-20   1.43901128477777E-07   3.50826450668697E-16
      5.66666666666667E-01
      5.66666666666667E-02   5.66666666666667E-02   0.00000000000000E+00   0.00000000000000E+00   0.00000000000000E+00
      0.00000000000000E+00   0.00000000000000E+00  -4.48360890751151E-16   0.00000000000000E+00   0.00000000000000E+00
      0.00000000000000E+00   0.00000000000000E+00  -1.52253062897849E-07   2.33778903943145E-20  -1.52253062897826E-07
      9.97147545592053E-17   7.00000000000000E-01   7.00000000000000E-01   0.00000000000000E+00   0.00000000000000E+00
      1.52550814432672E-07  -9.66481429766948E-21   1.52550814432662E-07   3.50255356907259E-16
      5.83333333333333E-01
      5.83333333333333E-02   5.83333333333333E-02   0.00000000000000E+00   0.00000000000000E+00   0.00000000000000E+00
      0.00000000000000E+00   0.00000000000000E+00  -4.47153029532175E-16   0.00000000000000E+00   0.00000000000000E+00
      0.00000000000000E+00   0.00000000000000E+00  -1.61342003361804E-07   2.00727309196007E-20  -1.61342003361784E-07
      9.90875763719004E-17   7.00000000000000E-01   7.00000000000000E-01   0.00000000000000E+00   0.00000000000000E+00
      1.61731505023070E-07  -8.89127447043955E-21   1.61731505023061E-07   3.49684176198278E-16
      6.00000000000000E-01
      6.00000000000000E-02   6.00000000000000E-02   0.00000000000000E+00   0.00000000000000E+00   0.00000000000000E+00
      0.00000000000000E+00   0.00000000000000E+00  -4.45944662855492E-16   0.00000000000000E+00   0.00000000000000E+00
      0.00000000000000E+00   0.00000000000000E+00  -1.70969562415394E-07   1.79381234226847E-20  -1.70969562415376E-07
      9.84602199528442E-17   7.00000000000000E-01   7.00000000000000E-01   0.00000000000000E+00   0.00000000000000E+00
      1.71414576825478E-07  -8.24535192867034E-21   1.71414576825469E-07   3.49112908976827E-16
      6.16666666666667E-01
      6.16666666666667E-02   6.16666666666667E-02   0.00000000000000E+00   0.00000000000000E+00   0.00000000000000E+00
      0.00000000000000E+00   0.00000000000000E+00  -4.44735784091294E-16   0.00000000000000E+00   0.00000000000000E+00
      0.00000000000000E+00   0.00000000000000E+00  -1.81167328522285E-07   1.59158676737999E-20  -1.81167328522270E-07
      9.78326862935546E-17   7.00000000000000E-01   7.00000000000000E-01   0.00000000000000E+00   0.00000000000000E+00
      1.81607538145162E-07  -7.65830996373643E-21   1.81607538145154E-07   3.48541555204534E-16
      6.33333333333334E-01
      6.33333333333334E-02   6.33333333333334E-02   0.00000000000000E+00   0.00000000000000E+00   0.00000000000000E+00
      0.00000000000000E+00   0.00000000000000E+00  -4.43526386294310E-16   0.00000000000000E+00   0.00000000000000E+00
      0.00000000000000E+00   0.00000000000000E+00  -1.91968724877264E-07   1.48221937969479E-20  -1.91968724877249E-07
      9.72049764400063E-17   7.00000000000000E-01   7.00000000000000E-01   0.00000000000000E+00   0.00000000000000E+00
      1.92354203278088E-07  -7.14065278929242E-21   1.92354203278081E-07   3.47970114750059E-16
      6.50000000000000E-01
      6.50000000000000E-02   6.50000000000000E-02   0.00000000000000E+00   0.00000000000000E+00   0.00000000000000E+00
      0.00000000000000E+00   0.00000000000000E+00  -4.42316462419102E-16   0.00000000000000E+00   0.00000000000000E+00
      0.00000000000000E+00   0.00000000000000E+00  -2.03409090444784E-07   1.37379695910244E-20  -2.03409090444770E-07
      9.65770914933071E-17   7.00000000000000E-01   7.00000000000000E-01   0.00000000000000E+00   0.00000000000000E+00
      2.03720314977887E-07  -6.68475496839581E-21   2.03720314977880E-07   3.47398587623201E-16
      6.66666666666667E-01
      6.66666666666667E-02   6.66666666666667E-02   0.00000000000000E+00   0.00000000000000E+00   0.00000000000000E+00
      0.00000000000000E+00   0.00000000000000E+00  -4.41106005001970E-16   0.00000000000000E+00   0.00000000000000E+00
      0.00000000000000E+00   0.00000000000000E+00  -2.15525803308585E-07   1.29021719941053E-20  -2.15525803308572E-07
      9.59490326101322E-17   7.00000000000000E-01   7.00000000000000E-01   0.00000000000000E+00   0.00000000000000E+00
      2.15773098052343E-07  -6.25928206807147E-21   2.15773098052336E-07   3.46826973679208E-16
      6.83333333333334E-01
      6.83333333333334E-02   6.83333333333334E-02   0.00000000000000E+00   0.00000000000000E+00   0.00000000000000E+00
      0.00000000000000E+00   0.00000000000000E+00  -4.39895006420271E-16   0.00000000000000E+00   0.00000000000000E+00
      0.00000000000000E+00   0.00000000000000E+00  -2.28358395119644E-07   1.16123612704066E-20  -2.28358395119633E-07
      9.53208010084810E-17   7.00000000000000E-01   7.00000000000000E-01   0.00000000000000E+00   0.00000000000000E+00
      2.28566210741741E-07  -5.84983029548832E-21   2.28566210741735E-07   3.46255272885717E-16
      7.00000000000001E-01
      7.00000000000000E-02   7.00000000000000E-02   0.00000000000000E+00   0.00000000000000E+00   0.00000000000000E+00
      0.00000000000000E+00   0.00000000000000E+00  -4.38683458821626E-16   0.00000000000000E+00   0.00000000000000E+00
      0.00000000000000E+00   0.00000000000000E+00  -2.41948665504379E-07   1.05180707331694E-20  -2.41948665504368E-07
      9.46923979688861E-17   7.00000000000000E-01   7.00000000000000E-01   0.00000000000000E+00   0.00000000000000E+00
      2.42136625958179E-07  -5.46379153452969E-21   2.42136625958173E-07   3.45683485267363E-16
      7.16666666666667E-01
      7.16666666666667E-02   7.16666666666667E-02   0.00000000000000E+00   0.00000000000000E+00   0.00000000000000E+00
      0.00000000000000E+00   0.00000000000000E+00  -4.37471354072037E-16   0.00000000000000E+00   0.00000000000000E+00
      0.00000000000000E+00   0.00000000000000E+00  -2.56340815150900E-07   9.63645107956896E-21  -2.56340815150891E-07
      9.40638248316691E-17   7.00000000000000E-01   7.00000000000000E-01   0.00000000000000E+00   0.00000000000000E+00
      2.56511821898091E-07  -5.12171862863961E-21   2.56511821898086E-07   3.45111610881406E-16
      7.33333333333334E-01
      7.33333333333334E-02   7.33333333333334E-02   0.00000000000000E+00   0.00000000000000E+00   0.00000000000000E+00
      0.00000000000000E+00   0.00000000000000E+00  -4.36258683725701E-16   0.00000000000000E+00   0.00000000000000E+00
      0.00000000000000E+00   0.00000000000000E+00  -2.71581571712948E-07   8.80173293827588E-21  -2.71581571712939E-07
      9.34350830059893E-17   7.00000000000000E-01   7.00000000000000E-01   0.00000000000000E+00   0.00000000000000E+00
      2.71720333783793E-07  -4.83823850579499E-21   2.71720333783788E-07   3.44539649779271E-16
      7.50000000000001E-01
      7.50000000000001E-02   7.50000000000001E-02   0.00000000000000E+00   0.00000000000000E+00   0.00000000000000E+00
      0.00000000000000E+00   0.00000000000000E+00  -4.35045438988589E-16   0.00000000000000E+00   0.00000000000000E+00
      0.00000000000000E+00   0.00000000000000E+00  -2.87720337579857E-07   8.13190535776294E-21  -2.87720337579848E-07
      9.28061739715638E-17   7.00000000000000E-01   7.00000000000000E-01   0.00000000000000E+00   0.00000000000000E+00
      2.87798858415436E-07  -4.62928920663040E-21   2.87798858415432E-07   3.43967601987894E-16
      7.66666666666667E-01
      7.66666666666667E-02   7.66666666666667E-02   0.00000000000000E+00   0.00000000000000E+00   0.00000000000000E+00
      0.00000000000000E+00   0.00000000000000E+00  -4.33831610631315E-16   0.00000000000000E+00   0.00000000000000E+00
      0.00000000000000E+00   0.00000000000000E+00  -3.04809326637444E-07   7.64857998390959E-21  -3.04809326637437E-07
      9.21770992772154E-17   7.00000000000000E-01   7.00000000000000E-01   0.00000000000000E+00   0.00000000000000E+00
      3.04792863961703E-07  -4.51877983430091E-21   3.04792863961699E-07   3.43395467438876E-16
      7.83333333333334E-01
      7.83333333333334E-02   7.83333333333334E-02   0.00000000000000E+00   0.00000000000000E+00   0.00000000000000E+00
      0.00000000000000E+00   0.00000000000000E+00  -4.32617189208674E-16   0.00000000000000E+00   0.00000000000000E+00
      0.00000000000000E+00   0.00000000000000E+00  -3.22903736781618E-07   7.15487209404414E-21  -3.22903736781611E-07
      9.15478605446626E-17   7.00000000000000E-01   7.00000000000000E-01   0.00000000000000E+00   0.00000000000000E+00
      3.22751827244823E-07  -4.55649133484384E-21   3.22751827244818E-07   3.42823246221450E-16
      8.00000000000001E-01
      8.00000000000001E-02   8.00000000000001E-02   0.00000000000000E+00   0.00000000000000E+00   0.00000000000000E+00
      0.00000000000000E+00   0.00000000000000E+00  -4.31402164676335E-16   0.00000000000000E+00   0.00000000000000E+00