DF-ISE text

Info {
  version   = 1.0
  type      = xyplot
  datasets  = [
    "time"
    "gate OuterVoltage" "gate InnerVoltage" "gate QuasiFermiPotential" "gate DisplacementCurrent" "gate eCurrent"
    "gate hCurrent" "gate TotalCurrent" "gate Charge" "source OuterVoltage" "source InnerVoltage"
    "source QuasiFermiPotential" "source DisplacementCurrent" "source eCurrent" "source hCurrent" "source TotalCurrent"
    "source Charge" "drain OuterVoltage" "drain InnerVoltage" "drain QuasiFermiPotential" "drain DisplacementCurrent"
    "drain eCurrent" "drain hCurrent" "drain TotalCurrent" "drain Charge" ]
  functions = [
    Time
    OuterVoltage InnerVoltage QuasiFermiPotential DisplacementCurrent eCurrent
    hCurrent TotalCurrent Charge OuterVoltage InnerVoltage
    QuasiFermiPotential DisplacementCurrent eCurrent hCurrent TotalCurrent
    Charge OuterVoltage InnerVoltage QuasiFermiPotential DisplacementCurrent
    eCurrent hCurrent TotalCurrent Charge ]
}

Data {
      0.00000000000000E+00
      0.00000000000000E+00   0.00000000000000E+00   0.00000000000000E+00   0.00000000000000E+00   0.00000000000000E+00
      0.00000000000000E+00   0.00000000000000E+00   5.22306629863589E-16   0.00000000000000E+00   0.00000000000000E+00
      0.00000000000000E+00   0.00000000000000E+00   3.61767836174026E-08  -2.85350122130378E-17   3.61767835888675E-08
     -1.10396937874590E-16  -8.00000000000000E-01  -8.00000000000000E-01   0.00000000000000E+00   0.00000000000000E+00
     -3.61767835799770E-08  -8.88940630724636E-18  -3.61767835888664E-08  -4.13095189992868E-16
      1.66666666666667E-02
     -1.33333333333333E-02  -1.33333333333333E-02   0.00000000000000E+00   0.00000000000000E+00   0.00000000000000E+00
      0.00000000000000E+00   0.00000000000000E+00   5.12122500824910E-16   0.00000000000000E+00   0.00000000000000E+00
      0.00000000000000E+00   0.00000000000000E+00   5.82523111697251E-08  -3.97716998939513E-13   5.82519134527262E-08
     -1.05067107165939E-16  -8.00000000000000E-01  -8.00000000000000E-01   0.00000000000000E+00   0.00000000000000E+00
     -5.82522248314371E-08  -7.59048363216312E-14  -5.82523007362734E-08  -4.08263339973409E-16
      3.33333333333333E-02
     -2.66666666666667E-02  -2.66666666666667E-02   0.00000000000000E+00   0.00000000000000E+00   0.00000000000000E+00
      0.00000000000000E+00   0.00000000000000E+00   5.01899952364590E-16   0.00000000000000E+00   0.00000000000000E+00
      0.00000000000000E+00   0.00000000000000E+00   9.36922434867066E-08   6.18861975931937E-17   9.36922435485928E-08
     -9.97150156178421E-17  -8.00000000000000E-01  -8.00000000000000E-01   0.00000000000000E+00   0.00000000000000E+00
     -9.36922436487687E-08   9.99191950503974E-17  -9.36922435488495E-08  -4.03423917186817E-16
      5.00000000000000E-02
     -4.00000000000000E-02  -4.00000000000000E-02   0.00000000000000E+00   0.00000000000000E+00   0.00000000000000E+00
      0.00000000000000E+00   0.00000000000000E+00   4.91634848641040E-16   0.00000000000000E+00   0.00000000000000E+00
      0.00000000000000E+00   0.00000000000000E+00   1.50493842822357E-07  -1.02214296385722E-17   1.50493842812135E-07
     -9.43398916033268E-17  -8.00000000000000E-01  -8.00000000000000E-01   0.00000000000000E+00   0.00000000000000E+00
     -1.50493842701274E-07  -1.10924408418534E-16  -1.50493842812199E-07  -3.98576976367332E-16
      6.66666666666667E-02
     -5.33333333333333E-02  -5.33333333333333E-02   0.00000000000000E+00   0.00000000000000E+00   0.00000000000000E+00
      0.00000000000000E+00   0.00000000000000E+00   4.81322035465320E-16   0.00000000000000E+00   0.00000000000000E+00
      0.00000000000000E+00   0.00000000000000E+00   2.41352738142268E-07  -6.99143593785935E-17   2.41352738072353E-07
     -8.89413499641147E-17  -8.00000000000000E-01  -8.00000000000000E-01   0.00000000000000E+00   0.00000000000000E+00
     -2.41352738126170E-07   5.38569035481934E-17  -2.41352738072313E-07  -3.93722567911723E-16
      8.33333333333333E-02
     -6.66666666666667E-02  -6.66666666666667E-02   0.00000000000000E+00   0.00000000000000E+00   0.00000000000000E+00
      0.00000000000000E+00   0.00000000000000E+00   4.70954886544535E-16   0.00000000000000E+00   0.00000000000000E+00
      0.00000000000000E+00   0.00000000000000E+00   3.86336359153497E-07  -2.98082097950027E-15   3.86336356172676E-07
     -8.35195335622863E-17  -8.00000000000000E-01  -8.00000000000000E-01   0.00000000000000E+00   0.00000000000000E+00
     -3.86336357774175E-07  -1.57503438360348E-15  -3.86336359349210E-07  -3.88860735459309E-16
      1.00000000000000E-01
     -8.00000000000000E-02  -8.00000000000000E-02   0.00000000000000E+00   0.00000000000000E+00   0.00000000000000E+00
      0.00000000000000E+00   0.00000000000000E+00   4.60524636718585E-16   0.00000000000000E+00   0.00000000000000E+00
      0.00000000000000E+00   0.00000000000000E+00   6.16985838985029E-07  -2.32829025748393E-15   6.16985836656738E-07
     -7.80752817135326E-17  -8.00000000000000E-01  -8.00000000000000E-01   0.00000000000000E+00   0.00000000000000E+00
     -6.16985840055051E-07   6.60889622631160E-16  -6.16985839394161E-07  -3.83991511445608E-16
      1.16666666666667E-01
     -9.33333333333333E-02  -9.33333333333333E-02   0.00000000000000E+00   0.00000000000000E+00   0.00000000000000E+00
      0.00000000000000E+00   0.00000000000000E+00   4.50019424278044E-16   0.00000000000000E+00   0.00000000000000E+00
      0.00000000000000E+00   0.00000000000000E+00   9.82506664246249E-07  -2.16683293308494E-15   9.82506662079416E-07
     -7.26103272035922E-17  -8.00000000000000E-01  -8.00000000000000E-01   0.00000000000000E+00   0.00000000000000E+00
     -9.82506664568709E-07   5.24482482649674E-16  -9.82506664044227E-07  -3.79114909523416E-16
      1.33333333333333E-01
     -1.06666666666667E-01  -1.06666666666667E-01   0.00000000000000E+00   0.00000000000000E+00   0.00000000000000E+00
      0.00000000000000E+00   0.00000000000000E+00   4.39422957958437E-16   0.00000000000000E+00   0.00000000000000E+00
      0.00000000000000E+00   0.00000000000000E+00   1.55889682839069E-06  -4.18607295008672E-15   1.55889682420462E-06
     -6.71275188327335E-17  -8.00000000000000E-01  -8.00000000000000E-01   0.00000000000000E+00   0.00000000000000E+00
     -1.55889682810873E-06   1.43274992305954E-16  -1.55889682796545E-06  -3.74230912051480E-16
      1.50000000000000E-01
     -1.20000000000000E-01  -1.20000000000000E-01   0.00000000000000E+00   0.00000000000000E+00   0.00000000000000E+00
      0.00000000000000E+00   0.00000000000000E+00   4.28712741541241E-16   0.00000000000000E+00   0.00000000000000E+00
      0.00000000000000E+00   0.00000000000000E+00   2.46197086816211E-06  -1.88084076131189E-14   2.46197084935370E-06
     -6.16310565747015E-17  -8.00000000000000E-01  -8.00000000000000E-01   0.00000000000000E+00   0.00000000000000E+00
     -2.46197086794637E-06  -3.17609992587550E-16  -2.46197086826398E-06  -3.69339450011265E-16
      1.66666666666667E-01
     -1.33333333333333E-01  -1.33333333333333E-01   0.00000000000000E+00   0.00000000000000E+00   0.00000000000000E+00
      0.00000000000000E+00   0.00000000000000E+00   4.17857855790534E-16   0.00000000000000E+00   0.00000000000000E+00
      0.00000000000000E+00   0.00000000000000E+00   3.86510221559848E-06  -7.92122305088142E-14   3.86510213638625E-06
     -5.61267090419302E-17  -8.00000000000000E-01  -8.00000000000000E-01   0.00000000000000E+00   0.00000000000000E+00
     -3.86510221526987E-06   9.14553066550965E-17  -3.86510221517841E-06  -3.64440371936327E-16
      1.83333333333333E-01
     -1.46666666666667E-01  -1.46666666666667E-01   0.00000000000000E+00   0.00000000000000E+00   0.00000000000000E+00
      0.00000000000000E+00   0.00000000000000E+00   4.06816440646264E-16   0.00000000000000E+00   0.00000000000000E+00
      0.00000000000000E+00   0.00000000000000E+00   6.02190573170405E-06  -2.61020686605447E-13   6.02190547068337E-06
     -5.06219585065269E-17  -8.00000000000000E-01  -8.00000000000000E-01   0.00000000000000E+00   0.00000000000000E+00
     -6.02190573218896E-06   6.11556718211822E-16  -6.02190573157740E-06  -3.59533397865671E-16
      2.00000000000000E-01
     -1.60000000000000E-01  -1.60000000000000E-01   0.00000000000000E+00   0.00000000000000E+00   0.00000000000000E+00
      0.00000000000000E+00   0.00000000000000E+00   3.95533226320742E-16   0.00000000000000E+00   0.00000000000000E+00
      0.00000000000000E+00   0.00000000000000E+00   9.29301109704236E-06  -7.28941213981693E-13   9.29301036810115E-06
     -4.51259956895252E-17  -8.00000000000000E-01  -8.00000000000000E-01   0.00000000000000E+00   0.00000000000000E+00
     -9.29301109581618E-06   8.04174810998002E-16  -9.29301109501201E-06  -3.54618054215955E-16
      2.16666666666667E-01
     -1.73333333333333E-01  -1.73333333333333E-01   0.00000000000000E+00   0.00000000000000E+00   0.00000000000000E+00
      0.00000000000000E+00   0.00000000000000E+00   3.83937559791972E-16   0.00000000000000E+00   0.00000000000000E+00
      0.00000000000000E+00   0.00000000000000E+00   1.41756674949354E-05  -1.75016100039797E-12   1.41756657447744E-05
     -3.96494906375614E-17  -8.00000000000000E-01  -8.00000000000000E-01   0.00000000000000E+00   0.00000000000000E+00
     -1.41756674912804E-05  -1.95838162274157E-15  -1.41756674932388E-05  -3.49693584285563E-16
      2.33333333333333E-01
     -1.86666666666667E-01  -1.86666666666667E-01   0.00000000000000E+00   0.00000000000000E+00   0.00000000000000E+00
      0.00000000000000E+00   0.00000000000000E+00   3.71941751150028E-16   0.00000000000000E+00   0.00000000000000E+00
      0.00000000000000E+00   0.00000000000000E+00   2.13402070823864E-05  -3.66172485353112E-12   2.13402034206615E-05
     -3.42041510745948E-17  -8.00000000000000E-01  -8.00000000000000E-01   0.00000000000000E+00   0.00000000000000E+00
     -2.13402070758493E-05  -4.98509143595840E-15  -2.13402070808344E-05  -3.44758818183169E-16
      2.50000000000000E-01
     -2.00000000000000E-01  -2.00000000000000E-01   0.00000000000000E+00   0.00000000000000E+00   0.00000000000000E+00
      0.00000000000000E+00   0.00000000000000E+00   3.59435985110397E-16   0.00000000000000E+00   0.00000000000000E+00
      0.00000000000000E+00   0.00000000000000E+00   3.17095202613255E-05  -6.73606396534069E-12   3.17095135252616E-05
     -2.88023710547208E-17  -8.00000000000000E-01  -8.00000000000000E-01   0.00000000000000E+00   0.00000000000000E+00
     -3.17095202597847E-05  -9.16213524445155E-16  -3.17095202607009E-05  -3.39811922525063E-16
      2.66666666666667E-01
     -2.13333333333333E-01  -2.13333333333333E-01   0.00000000000000E+00   0.00000000000000E+00   0.00000000000000E+00
      0.00000000000000E+00   0.00000000000000E+00   3.46257708782790E-16   0.00000000000000E+00   0.00000000000000E+00
      0.00000000000000E+00   0.00000000000000E+00   4.67913389838244E-05  -4.01695224336855E-11   4.67912988143019E-05
     -2.34584499124756E-17  -8.00000000000000E-01  -8.00000000000000E-01   0.00000000000000E+00   0.00000000000000E+00
     -4.67913389926448E-05  -1.17918222201787E-13  -4.67913391105631E-05  -3.34849584542612E-16
      2.83333333333333E-01
     -2.26666666666667E-01  -2.26666666666667E-01   0.00000000000000E+00   0.00000000000000E+00   0.00000000000000E+00
      0.00000000000000E+00   0.00000000000000E+00   3.32706917112734E-16   0.00000000000000E+00   0.00000000000000E+00
      0.00000000000000E+00   0.00000000000000E+00   6.38719242032909E-05  -3.09221378771941E-16   6.38719242029817E-05
     -1.81658240548603E-17  -8.00000000000000E-01  -8.00000000000000E-01   0.00000000000000E+00   0.00000000000000E+00
     -6.38719242033572E-05  -1.46878577465082E-16  -6.38719242035041E-05  -3.29875956158178E-16
      3.00000000000000E-01
     -2.40000000000000E-01  -2.40000000000000E-01   0.00000000000000E+00   0.00000000000000E+00   0.00000000000000E+00
      0.00000000000000E+00   0.00000000000000E+00   3.18908438320305E-16   0.00000000000000E+00   0.00000000000000E+00
      0.00000000000000E+00   0.00000000000000E+00   8.21161592902459E-05  -1.56833938291073E-11   8.21161436068521E-05
     -1.28921808887022E-17  -8.00000000000000E-01  -8.00000000000000E-01   0.00000000000000E+00   0.00000000000000E+00
     -8.21161593261054E-05  -3.70382339106723E-13  -8.21161596964878E-05  -3.24892643791380E-16
      3.16666666666667E-01
     -2.53333333333333E-01  -2.53333333333333E-01   0.00000000000000E+00   0.00000000000000E+00   0.00000000000000E+00
      0.00000000000000E+00   0.00000000000000E+00   3.04554475583425E-16   0.00000000000000E+00   0.00000000000000E+00
      0.00000000000000E+00   0.00000000000000E+00   1.03666527354951E-04  -9.11409252770564E-12   1.03666518240858E-04
     -7.67890488638147E-18  -8.00000000000000E-01  -8.00000000000000E-01   0.00000000000000E+00   0.00000000000000E+00
     -1.03666527352509E-04   9.76806246513747E-16  -1.03666527351532E-04  -3.19895524316523E-16
      3.33333333333333E-01
     -2.66666666666667E-01  -2.66666666666667E-01   0.00000000000000E+00   0.00000000000000E+00   0.00000000000000E+00
      0.00000000000000E+00   0.00000000000000E+00   2.89671053154157E-16   0.00000000000000E+00   0.00000000000000E+00
      0.00000000000000E+00   0.00000000000000E+00   1.28505745825639E-04  -6.51182271928311E-12   1.28505739313816E-04
     -2.52216253172509E-18  -8.00000000000000E-01  -8.00000000000000E-01   0.00000000000000E+00   0.00000000000000E+00
     -1.28505745805772E-04   2.73333777214716E-15  -1.28505745803038E-04  -3.14883749831586E-16
      3.50000000000000E-01
     -2.80000000000000E-01  -2.80000000000000E-01   0.00000000000000E+00   0.00000000000000E+00   0.00000000000000E+00
      0.00000000000000E+00   0.00000000000000E+00   2.74230644099898E-16   0.00000000000000E+00   0.00000000000000E+00
      0.00000000000000E+00   0.00000000000000E+00   1.56234347238915E-04  -6.76663803173647E-12   1.56234340472277E-04
      2.57835247678363E-18  -8.00000000000000E-01  -8.00000000000000E-01   0.00000000000000E+00   0.00000000000000E+00
     -1.56234347206056E-04   2.06693887149745E-14  -1.56234347185386E-04  -3.09858940822186E-16
      3.66666666666667E-01
     -2.93333333333333E-01  -2.93333333333333E-01   0.00000000000000E+00   0.00000000000000E+00   0.00000000000000E+00
      0.00000000000000E+00   0.00000000000000E+00   2.58311678156469E-16   0.00000000000000E+00   0.00000000000000E+00
      0.00000000000000E+00   0.00000000000000E+00   1.87156794097578E-04  -2.79891312786877E-12   1.87156791298665E-04
      7.62670933208854E-18  -8.00000000000000E-01  -8.00000000000000E-01   0.00000000000000E+00   0.00000000000000E+00
     -1.87156794103377E-04   8.80765353065735E-15  -1.87156794094570E-04  -3.04817943414392E-16
      3.83333333333333E-01
     -3.06666666666667E-01  -3.06666666666667E-01   0.00000000000000E+00   0.00000000000000E+00   0.00000000000000E+00
      0.00000000000000E+00   0.00000000000000E+00   2.41854281346201E-16   0.00000000000000E+00   0.00000000000000E+00
      0.00000000000000E+00   0.00000000000000E+00   2.20681880320244E-04  -3.39867064002657E-12   2.20681876921573E-04
      1.26240839735119E-17  -8.00000000000000E-01  -8.00000000000000E-01   0.00000000000000E+00   0.00000000000000E+00
     -2.20681880219275E-04  -1.96609964958201E-14  -2.20681880238936E-04  -2.99764546956450E-16
      4.00000000000000E-01
     -3.20000000000000E-01  -3.20000000000000E-01   0.00000000000000E+00   0.00000000000000E+00   0.00000000000000E+00
      0.00000000000000E+00   0.00000000000000E+00   2.24945634401148E-16   0.00000000000000E+00   0.00000000000000E+00
      0.00000000000000E+00   0.00000000000000E+00   2.56934492501398E-04  -1.51975929834697E-12   2.56934490981639E-04
      1.75753351154642E-17  -8.00000000000000E-01  -8.00000000000000E-01   0.00000000000000E+00   0.00000000000000E+00
     -2.56934492502812E-04   1.73416174132334E-15  -2.56934492501078E-04  -2.94695342405749E-16
      4.16666666666667E-01
     -3.33333333333333E-01  -3.33333333333333E-01   0.00000000000000E+00   0.00000000000000E+00   0.00000000000000E+00
      0.00000000000000E+00   0.00000000000000E+00   2.07603538899586E-16   0.00000000000000E+00   0.00000000000000E+00
      0.00000000000000E+00   0.00000000000000E+00   2.95756972887813E-04  -1.25800090856651E-12   2.95756971629812E-04
      2.24834572713467E-17  -8.00000000000000E-01  -8.00000000000000E-01   0.00000000000000E+00   0.00000000000000E+00
     -2.95756972875860E-04  -9.78300868761060E-15  -2.95756972885643E-04  -2.89610797937853E-16
      4.33333333333333E-01
     -3.46666666666667E-01  -3.46666666666667E-01   0.00000000000000E+00   0.00000000000000E+00   0.00000000000000E+00
      0.00000000000000E+00   0.00000000000000E+00   1.89771299397161E-16   0.00000000000000E+00   0.00000000000000E+00
      0.00000000000000E+00   0.00000000000000E+00   3.36611422364849E-04  -1.29598085960850E-12   3.36611421068868E-04
      2.73496656867187E-17  -8.00000000000000E-01  -8.00000000000000E-01   0.00000000000000E+00   0.00000000000000E+00
     -3.36611422373531E-04   1.07654175555250E-14  -3.36611422362766E-04  -2.84515500210345E-16
      4.50000000000000E-01
     -3.60000000000000E-01  -3.60000000000000E-01   0.00000000000000E+00   0.00000000000000E+00   0.00000000000000E+00
      0.00000000000000E+00   0.00000000000000E+00   1.71592969248326E-16   0.00000000000000E+00   0.00000000000000E+00
      0.00000000000000E+00   0.00000000000000E+00   3.79765611157139E-04  -8.22844961955810E-13   3.79765610334294E-04
      3.21789012889967E-17  -8.00000000000000E-01  -8.00000000000000E-01   0.00000000000000E+00   0.00000000000000E+00
     -3.79765611156222E-04  -4.25993884805535E-15  -3.79765611160482E-04  -2.79402116006378E-16
      4.66666666666667E-01
     -3.73333333333333E-01  -3.73333333333333E-01   0.00000000000000E+00   0.00000000000000E+00   0.00000000000000E+00
      0.00000000000000E+00   0.00000000000000E+00   1.53040588539181E-16   0.00000000000000E+00   0.00000000000000E+00
      0.00000000000000E+00   0.00000000000000E+00   4.24909709397182E-04  -6.97055650394086E-13   4.24909708700127E-04
      3.69732004181552E-17  -8.00000000000000E-01  -8.00000000000000E-01   0.00000000000000E+00   0.00000000000000E+00
     -4.24909709407713E-04   1.51959797611952E-14  -4.24909709392517E-04  -2.74274502712382E-16
      4.83333333333333E-01
     -3.86666666666667E-01  -3.86666666666667E-01   0.00000000000000E+00   0.00000000000000E+00   0.00000000000000E+00
      0.00000000000000E+00   0.00000000000000E+00   1.34062821147552E-16   0.00000000000000E+00   0.00000000000000E+00
      0.00000000000000E+00   0.00000000000000E+00   4.71635624856655E-04  -6.32693515261583E-13   4.71635624223961E-04
      4.17341900780717E-17  -8.00000000000000E-01  -8.00000000000000E-01   0.00000000000000E+00   0.00000000000000E+00
     -4.71635624844354E-04  -4.10838139156837E-15  -4.71635624848462E-04  -2.69137872321133E-16
      5.00000000000000E-01
     -4.00000000000000E-01  -4.00000000000000E-01   0.00000000000000E+00   0.00000000000000E+00   0.00000000000000E+00
      0.00000000000000E+00   0.00000000000000E+00   1.14778934460336E-16   0.00000000000000E+00   0.00000000000000E+00
      0.00000000000000E+00   0.00000000000000E+00   5.20080589780294E-04  -4.63777379556493E-13   5.20080589316517E-04
      4.64655976757000E-17  -8.00000000000000E-01  -8.00000000000000E-01   0.00000000000000E+00   0.00000000000000E+00
     -5.20080589780095E-04  -1.09992588685779E-16  -5.20080589780205E-04  -2.63984568750011E-16
      5.16666666666667E-01
     -4.13333333333333E-01  -4.13333333333333E-01   0.00000000000000E+00   0.00000000000000E+00   0.00000000000000E+00
      0.00000000000000E+00   0.00000000000000E+00   9.52360300778388E-17   0.00000000000000E+00   0.00000000000000E+00
      0.00000000000000E+00   0.00000000000000E+00   5.70199253818574E-04  -3.99306581705797E-13   5.70199253419267E-04
      5.11701441441382E-17  -8.00000000000000E-01  -8.00000000000000E-01   0.00000000000000E+00   0.00000000000000E+00
     -5.70199253818223E-04  -3.33276340375348E-16  -5.70199253818557E-04  -2.58812446933854E-16
      5.33333333333333E-01
     -4.26666666666667E-01  -4.26666666666667E-01   0.00000000000000E+00   0.00000000000000E+00   0.00000000000000E+00
      0.00000000000000E+00   0.00000000000000E+00   7.53511654855597E-17   0.00000000000000E+00   0.00000000000000E+00
      0.00000000000000E+00   0.00000000000000E+00   6.21590572317790E-04  -3.65016611616061E-13   6.21590571952774E-04
      5.58490842912600E-17  -8.00000000000000E-01  -8.00000000000000E-01   0.00000000000000E+00   0.00000000000000E+00
     -6.21590572327351E-04   2.22222899043560E-14  -6.21590572305129E-04  -2.53632060496235E-16
      5.50000000000000E-01
     -4.40000000000000E-01  -4.40000000000000E-01   0.00000000000000E+00   0.00000000000000E+00   0.00000000000000E+00
      0.00000000000000E+00   0.00000000000000E+00   5.51516206420641E-17   0.00000000000000E+00   0.00000000000000E+00
      0.00000000000000E+00   0.00000000000000E+00   6.74144112475087E-04  -2.68812297169595E-13   6.74144112206275E-04
      6.05046556525650E-17  -8.00000000000000E-01  -8.00000000000000E-01   0.00000000000000E+00   0.00000000000000E+00
     -6.74144112473683E-04  -2.96964416783149E-15  -6.74144112476653E-04  -2.48441678275378E-16
      5.66666666666667E-01
     -4.53333333333333E-01  -4.53333333333333E-01   0.00000000000000E+00   0.00000000000000E+00   0.00000000000000E+00
      0.00000000000000E+00   0.00000000000000E+00   3.47048264920824E-17   0.00000000000000E+00   0.00000000000000E+00
      0.00000000000000E+00   0.00000000000000E+00   7.27873327724763E-04  -2.29154651236019E-13   7.27873327495609E-04
      6.51393409326860E-17  -8.00000000000000E-01  -8.00000000000000E-01   0.00000000000000E+00   0.00000000000000E+00
     -7.27873327724073E-04   1.34995215737450E-15  -7.27873327722723E-04  -2.43235910770050E-16
      5.83333333333333E-01
     -4.66666666666667E-01  -4.66666666666667E-01   0.00000000000000E+00   0.00000000000000E+00   0.00000000000000E+00
      0.00000000000000E+00   0.00000000000000E+00   1.40702347766882E-17   0.00000000000000E+00   0.00000000000000E+00
      0.00000000000000E+00   0.00000000000000E+00   7.82795420123151E-04  -1.97535363702602E-13   7.82795419925615E-04
      6.97554259720108E-17  -8.00000000000000E-01  -8.00000000000000E-01   0.00000000000000E+00   0.00000000000000E+00
     -7.82795420123589E-04   2.69548733969655E-16  -7.82795420123319E-04  -2.38009981736711E-16
      6.00000000000000E-01
     -4.80000000000000E-01  -4.80000000000000E-01   0.00000000000000E+00   0.00000000000000E+00   0.00000000000000E+00
      0.00000000000000E+00   0.00000000000000E+00  -6.80694782837944E-18   0.00000000000000E+00   0.00000000000000E+00
      0.00000000000000E+00   0.00000000000000E+00   8.38650812658547E-04  -1.64641141802845E-13   8.38650812493906E-04
      7.43541280728864E-17  -8.00000000000000E-01  -8.00000000000000E-01   0.00000000000000E+00   0.00000000000000E+00
     -8.38650812656134E-04   9.78798840227309E-16  -8.38650812655156E-04  -2.32774486755488E-16
      6.16666666666667E-01
     -4.93333333333334E-01  -4.93333333333334E-01   0.00000000000000E+00   0.00000000000000E+00   0.00000000000000E+00
      0.00000000000000E+00   0.00000000000000E+00  -2.79332476412538E-17   0.00000000000000E+00   0.00000000000000E+00
      0.00000000000000E+00   0.00000000000000E+00   8.95295499908374E-04  -1.34794830886873E-13   8.95295499773579E-04
      7.89369317506794E-17  -8.00000000000000E-01  -8.00000000000000E-01   0.00000000000000E+00   0.00000000000000E+00
     -8.95295499905176E-04   6.16720141697483E-16  -8.95295499904560E-04  -2.27531822964505E-16
      6.33333333333334E-01
     -5.06666666666667E-01  -5.06666666666667E-01   0.00000000000000E+00   0.00000000000000E+00   0.00000000000000E+00
      0.00000000000000E+00   0.00000000000000E+00  -4.92754050672781E-17   0.00000000000000E+00   0.00000000000000E+00
      0.00000000000000E+00   0.00000000000000E+00   9.52688981791227E-04  -1.07607772542500E-13   9.52688981683619E-04
      8.35054952904996E-17  -8.00000000000000E-01  -8.00000000000000E-01   0.00000000000000E+00   0.00000000000000E+00
     -9.52688981791820E-04   6.44368706689223E-16  -9.52688981791176E-04  -2.22278297587974E-16
      6.50000000000000E-01
     -5.20000000000000E-01  -5.20000000000000E-01   0.00000000000000E+00   0.00000000000000E+00   0.00000000000000E+00
      0.00000000000000E+00   0.00000000000000E+00  -7.08033680435479E-17   0.00000000000000E+00   0.00000000000000E+00
      0.00000000000000E+00   0.00000000000000E+00   1.01079305794379E-03  -9.04277958885772E-14   1.01079305785337E-03
      8.80613517574877E-17  -8.00000000000000E-01  -8.00000000000000E-01   0.00000000000000E+00   0.00000000000000E+00
     -1.01079305794345E-03   2.17380294648322E-16  -1.01079305794324E-03  -2.17011078126307E-16
      6.66666666666667E-01
     -5.33333333333334E-01  -5.33333333333334E-01   0.00000000000000E+00   0.00000000000000E+00   0.00000000000000E+00
      0.00000000000000E+00   0.00000000000000E+00  -9.24785131359696E-17   0.00000000000000E+00   0.00000000000000E+00
      0.00000000000000E+00   0.00000000000000E+00   1.06960381590039E-03  -7.68048821527903E-14   1.06960381582358E-03
      9.26059936621298E-17  -8.00000000000000E-01  -8.00000000000000E-01   0.00000000000000E+00   0.00000000000000E+00
     -1.06960381589996E-03   4.26535388958599E-16  -1.06960381589954E-03  -2.11726111364660E-16
      6.83333333333334E-01
     -5.46666666666667E-01  -5.46666666666667E-01   0.00000000000000E+00   0.00000000000000E+00   0.00000000000000E+00
      0.00000000000000E+00   0.00000000000000E+00  -1.14298369035001E-16   0.00000000000000E+00   0.00000000000000E+00
      0.00000000000000E+00   0.00000000000000E+00   1.12904183462773E-03  -6.38326440544164E-14   1.12904183456390E-03
      9.71404550991596E-17  -8.00000000000000E-01  -8.00000000000000E-01   0.00000000000000E+00   0.00000000000000E+00
     -1.12904183462697E-03   5.05403876193103E-17  -1.12904183462692E-03  -2.06426752495276E-16
      7.00000000000001E-01
     -5.60000000000000E-01  -5.60000000000000E-01   0.00000000000000E+00   0.00000000000000E+00   0.00000000000000E+00
      0.00000000000000E+00   0.00000000000000E+00  -1.36313168385905E-16   0.00000000000000E+00   0.00000000000000E+00
      0.00000000000000E+00   0.00000000000000E+00   1.18891399407787E-03  -5.09790838466344E-14   1.18891399402689E-03
      1.01665535492861E-16  -8.00000000000000E-01  -8.00000000000000E-01   0.00000000000000E+00   0.00000000000000E+00
     -1.18891399407816E-03   5.36961180966830E-15  -1.18891399407279E-03  -2.01125846810850E-16
      7.16666666666667E-01
     -5.73333333333334E-01  -5.73333333333334E-01   0.00000000000000E+00   0.00000000000000E+00   0.00000000000000E+00
      0.00000000000000E+00   0.00000000000000E+00  -1.58492205962078E-16   0.00000000000000E+00   0.00000000000000E+00
      0.00000000000000E+00   0.00000000000000E+00   1.24920941286631E-03  -4.20747665157909E-14   1.24920941282424E-03
      1.06182358154207E-16  -8.00000000000000E-01  -8.00000000000000E-01   0.00000000000000E+00   0.00000000000000E+00
     -1.24920941286605E-03   7.77118626775014E-16  -1.24920941286527E-03  -1.95817776560605E-16
      7.33333333333334E-01
     -5.86666666666667E-01  -5.86666666666667E-01   0.00000000000000E+00   0.00000000000000E+00   0.00000000000000E+00
      0.00000000000000E+00   0.00000000000000E+00  -1.80816345896012E-16   0.00000000000000E+00   0.00000000000000E+00
      0.00000000000000E+00   0.00000000000000E+00   1.30989684961324E-03  -3.48224969533607E-14   1.30989684957842E-03
      1.10691885190328E-16  -8.00000000000000E-01  -8.00000000000000E-01   0.00000000000000E+00   0.00000000000000E+00
     -1.30989684961330E-03   7.95296177952379E-16  -1.30989684961251E-03  -1.90499908640367E-16
      7.50000000000001E-01
     -6.00000000000001E-01  -6.00000000000001E-01   0.00000000000000E+00   0.00000000000000E+00   0.00000000000000E+00
      0.00000000000000E+00   0.00000000000000E+00  -2.03271523662452E-16   0.00000000000000E+00   0.00000000000000E+00
      0.00000000000000E+00   0.00000000000000E+00   1.37093898175363E-03  -2.92768856762181E-14   1.37093898172435E-03
      1.15194964531647E-16  -8.00000000000000E-01  -8.00000000000000E-01   0.00000000000000E+00   0.00000000000000E+00
     -1.37093898175341E-03   1.09202629686015E-15  -1.37093898175232E-03  -1.85170829856982E-16
      7.66666666666667E-01
     -6.13333333333334E-01  -6.13333333333334E-01   0.00000000000000E+00   0.00000000000000E+00   0.00000000000000E+00
      0.00000000000000E+00   0.00000000000000E+00  -2.25841389204145E-16   0.00000000000000E+00   0.00000000000000E+00
      0.00000000000000E+00   0.00000000000000E+00   1.43230948250347E-03  -2.41131445435133E-14   1.43230948247935E-03
      1.19692392995602E-16  -8.00000000000000E-01  -8.00000000000000E-01   0.00000000000000E+00   0.00000000000000E+00
     -1.43230948250311E-03   2.48794614011697E-16  -1.43230948250286E-03  -1.79828583081128E-16
      7.83333333333334E-01
     -6.26666666666667E-01  -6.26666666666667E-01   0.00000000000000E+00   0.00000000000000E+00   0.00000000000000E+00
      0.00000000000000E+00   0.00000000000000E+00  -2.48500013562683E-16   0.00000000000000E+00   0.00000000000000E+00
      0.00000000000000E+00   0.00000000000000E+00   1.49401005781402E-03  -2.07120029682749E-14   1.49401005779331E-03
      1.24184959413337E-16  -8.00000000000000E-01  -8.00000000000000E-01   0.00000000000000E+00   0.00000000000000E+00
     -1.49401005781364E-03   9.07433547793432E-16  -1.49401005781273E-03  -1.74468636751595E-16
      8.00000000000001E-01
     -6.40000000000001E-01  -6.40000000000001E-01   0.00000000000000E+00   0.00000000000000E+00   0.00000000000000E+00
      0.00000000000000E+00   0.00000000000000E+00  -2.71290753084523E-16   0.00000000000000E+00   0.00000000000000E+00