DF-ISE text

Info {
  version   = 1.0
  type      = xyplot
  datasets  = [
    "time"
    "gate OuterVoltage" "gate InnerVoltage" "gate QuasiFermiPotential" "gate DisplacementCurrent" "gate eCurrent"
    "gate hCurrent" "gate TotalCurrent" "gate Charge" "source OuterVoltage" "source InnerVoltage"
    "source QuasiFermiPotential" "source DisplacementCurrent" "source eCurrent" "source hCurrent" "source TotalCurrent"
    "source Charge" "drain OuterVoltage" "drain InnerVoltage" "drain QuasiFermiPotential" "drain DisplacementCurrent"
    "drain eCurrent" "drain hCurrent" "drain TotalCurrent" "drain Charge" ]
  functions = [
    Time
    OuterVoltage InnerVoltage QuasiFermiPotential DisplacementCurrent eCurrent
    hCurrent TotalCurrent Charge OuterVoltage InnerVoltage
    QuasiFermiPotential DisplacementCurrent eCurrent hCurrent TotalCurrent
    Charge OuterVoltage InnerVoltage QuasiFermiPotential DisplacementCurrent
    eCurrent hCurrent TotalCurrent Charge ]
}

Data {
      0.00000000000000E+00
      0.00000000000000E+00   0.00000000000000E+00   0.00000000000000E+00   0.00000000000000E+00   0.00000000000000E+00
      0.00000000000000E+00   0.00000000000000E+00  -5.12287760159006E-16   0.00000000000000E+00   0.00000000000000E+00
      0.00000000000000E+00   0.00000000000000E+00  -2.38119422803530E-08  -9.46021189576761E-25  -2.38119422803530E-08
      1.19087137372945E-16   7.80000000000000E-01   7.80000000000000E-01   0.00000000000000E+00   0.00000000000000E+00
      2.38119422803722E-08   6.33713419496567E-21   2.38119422803786E-08   3.94390557997542E-16
      1.66666666666667E-02
      1.30000000000000E-02   1.30000000000000E-02   0.00000000000000E+00   0.00000000000000E+00   0.00000000000000E+00
      0.00000000000000E+00   0.00000000000000E+00  -5.03058161348480E-16   0.00000000000000E+00   0.00000000000000E+00
      0.00000000000000E+00   0.00000000000000E+00  -3.73940189165122E-08   1.81570563647547E-19  -3.73940189163306E-08
      1.14250540048138E-16   7.80000000000000E-01   7.80000000000000E-01   0.00000000000000E+00   0.00000000000000E+00
      3.73941760114845E-08   5.17586673587043E-18   3.73941760166604E-08   3.90006047269218E-16
      3.33333333333333E-02
      2.60000000000000E-02   2.60000000000000E-02   0.00000000000000E+00   0.00000000000000E+00   0.00000000000000E+00
      0.00000000000000E+00   0.00000000000000E+00  -4.93805818679885E-16   0.00000000000000E+00   0.00000000000000E+00
      0.00000000000000E+00   0.00000000000000E+00  -5.86643418661987E-08  -6.85159696710732E-24  -5.86643418661987E-08
      1.09398849825028E-16   7.80000000000000E-01   7.80000000000000E-01   0.00000000000000E+00   0.00000000000000E+00
      5.86643418660602E-08   5.01072720533866E-20   5.86643418661103E-08   3.85616923196329E-16
      5.00000000000000E-02
      3.90000000000000E-02   3.90000000000000E-02   0.00000000000000E+00   0.00000000000000E+00   0.00000000000000E+00
      0.00000000000000E+00   0.00000000000000E+00  -4.84529166223893E-16   0.00000000000000E+00   0.00000000000000E+00
      0.00000000000000E+00   0.00000000000000E+00  -9.19285983532640E-08   1.00948621513899E-20  -9.19285983532539E-08
      1.04531682173721E-16   7.80000000000000E-01   7.80000000000000E-01   0.00000000000000E+00   0.00000000000000E+00
      9.19286008878347E-08   3.34334360539810E-18   9.19286008911780E-08   3.81223161844710E-16
      6.66666666666667E-02
      5.20000000000000E-02   5.20000000000000E-02   0.00000000000000E+00   0.00000000000000E+00   0.00000000000000E+00
      0.00000000000000E+00   0.00000000000000E+00  -4.75226251204849E-16   0.00000000000000E+00   0.00000000000000E+00
      0.00000000000000E+00   0.00000000000000E+00  -1.43868327198912E-07   4.35585593674637E-21  -1.43868327198908E-07
      9.96487198347955E-17   7.80000000000000E-01   7.80000000000000E-01   0.00000000000000E+00   0.00000000000000E+00
      1.43868329080357E-07   8.34024585379359E-19   1.43868329081191E-07   3.76824743428489E-16
      8.33333333333333E-02
      6.50000000000000E-02   6.50000000000000E-02   0.00000000000000E+00   0.00000000000000E+00   0.00000000000000E+00
      0.00000000000000E+00   0.00000000000000E+00  -4.65894582133377E-16   0.00000000000000E+00   0.00000000000000E+00
      0.00000000000000E+00   0.00000000000000E+00  -2.24818380770240E-07   6.83765253538995E-22  -2.24818380770240E-07
      9.47497509919911E-17   7.80000000000000E-01   7.80000000000000E-01   0.00000000000000E+00   0.00000000000000E+00
      2.24818382785313E-07   7.21961443892255E-20   2.24818382785385E-07   3.72421654946698E-16
      1.00000000000000E-01
      7.80000000000000E-02   7.80000000000000E-02   0.00000000000000E+00   0.00000000000000E+00   0.00000000000000E+00
      0.00000000000000E+00   0.00000000000000E+00  -4.56530912606715E-16   0.00000000000000E+00   0.00000000000000E+00
      0.00000000000000E+00   0.00000000000000E+00  -3.50703491660827E-07  -1.90204676806998E-24  -3.50703491660827E-07
      8.98347211886971E-17   7.80000000000000E-01   7.80000000000000E-01   0.00000000000000E+00   0.00000000000000E+00
      3.50703494460660E-07   3.31869545739050E-22   3.50703494460661E-07   3.68013893828018E-16
      1.16666666666667E-01
      9.10000000000000E-02   9.10000000000000E-02   0.00000000000000E+00   0.00000000000000E+00   0.00000000000000E+00
      0.00000000000000E+00   0.00000000000000E+00  -4.47130934282511E-16   0.00000000000000E+00   0.00000000000000E+00
      0.00000000000000E+00   0.00000000000000E+00  -5.45941760011512E-07   2.22069285384707E-23  -5.45941760011512E-07
      8.49038031479286E-17   7.80000000000000E-01   7.80000000000000E-01   0.00000000000000E+00   0.00000000000000E+00
      5.45941763492279E-07   3.55320366628616E-22   5.45941763492279E-07   3.63601473023682E-16
      1.33333333333333E-01
      1.04000000000000E-01   1.04000000000000E-01   0.00000000000000E+00   0.00000000000000E+00   0.00000000000000E+00
      0.00000000000000E+00   0.00000000000000E+00  -4.37688845481596E-16   0.00000000000000E+00   0.00000000000000E+00
      0.00000000000000E+00   0.00000000000000E+00  -8.47737471589697E-07   4.15433581255405E-23  -8.47737471589697E-07
      7.99574890187886E-17   7.80000000000000E-01   7.80000000000000E-01   0.00000000000000E+00   0.00000000000000E+00
      8.47737475598356E-07   7.75586464153245E-22   8.47737475598357E-07   3.59184428351163E-16
      1.50000000000000E-01
      1.17000000000000E-01   1.17000000000000E-01   0.00000000000000E+00   0.00000000000000E+00   0.00000000000000E+00
      0.00000000000000E+00   0.00000000000000E+00  -4.28196755480625E-16   0.00000000000000E+00   0.00000000000000E+00
      0.00000000000000E+00   0.00000000000000E+00  -1.31230447821683E-06   3.20302432150712E-23  -1.31230447821683E-06
      7.49967093036963E-17   7.80000000000000E-01   7.80000000000000E-01   0.00000000000000E+00   0.00000000000000E+00
      1.31230448258438E-06   1.05315055690880E-21   1.31230448258438E-06   3.54762828705459E-16
      1.66666666666667E-01
      1.30000000000000E-01   1.30000000000000E-01   0.00000000000000E+00   0.00000000000000E+00   0.00000000000000E+00
      0.00000000000000E+00   0.00000000000000E+00  -4.18643884606786E-16   0.00000000000000E+00   0.00000000000000E+00
      0.00000000000000E+00   0.00000000000000E+00  -2.02363888988018E-06   2.14600676437639E-23  -2.02363888988018E-06
      7.00229807703652E-17   7.80000000000000E-01   7.80000000000000E-01   0.00000000000000E+00   0.00000000000000E+00
      2.02363889549790E-06   1.43519699270718E-21   2.02363889549790E-06   3.50336789656139E-16
      1.83333333333333E-01
      1.43000000000000E-01   1.43000000000000E-01   0.00000000000000E+00   0.00000000000000E+00   0.00000000000000E+00
      0.00000000000000E+00   0.00000000000000E+00  -4.09015536800755E-16   0.00000000000000E+00   0.00000000000000E+00
      0.00000000000000E+00   0.00000000000000E+00  -3.10538999588616E-06   1.52456170245387E-23  -3.10538999588616E-06
      6.50385805207232E-17   7.80000000000000E-01   7.80000000000000E-01   0.00000000000000E+00   0.00000000000000E+00
      3.10539000932023E-06   1.86704115985020E-21   3.10539000932023E-06   3.45906490849614E-16
      2.00000000000000E-01
      1.56000000000000E-01   1.56000000000000E-01   0.00000000000000E+00   0.00000000000000E+00   0.00000000000000E+00
      0.00000000000000E+00   0.00000000000000E+00  -3.99291870284531E-16   0.00000000000000E+00   0.00000000000000E+00
      0.00000000000000E+00   0.00000000000000E+00  -4.73596639768950E-06   1.09259087641369E-23  -4.73596639768950E-06
      6.00467329667615E-17   7.80000000000000E-01   7.80000000000000E-01   0.00000000000000E+00   0.00000000000000E+00
      4.73596644526353E-06   2.04837665262192E-21   4.73596644526353E-06   3.41472197107469E-16
      2.16666666666667E-01
      1.69000000000000E-01   1.69000000000000E-01   0.00000000000000E+00   0.00000000000000E+00   0.00000000000000E+00
      0.00000000000000E+00   0.00000000000000E+00  -3.89446594110808E-16   0.00000000000000E+00   0.00000000000000E+00
      0.00000000000000E+00   0.00000000000000E+00  -7.16597998704270E-06   1.26945919789778E-24  -7.16597998704270E-06
      5.50517789563666E-17   7.80000000000000E-01   7.80000000000000E-01   0.00000000000000E+00   0.00000000000000E+00
      7.16598015227978E-06   1.37145706699897E-21   7.16598015227978E-06   3.37034282170332E-16
      2.33333333333333E-01
      1.82000000000000E-01   1.82000000000000E-01   0.00000000000000E+00   0.00000000000000E+00   0.00000000000000E+00
      0.00000000000000E+00   0.00000000000000E+00  -3.79445883839191E-16   0.00000000000000E+00   0.00000000000000E+00
      0.00000000000000E+00   0.00000000000000E+00  -1.07352380214954E-05  -3.33689874274014E-24  -1.07352380214954E-05
      5.00592726742903E-17   7.80000000000000E-01   7.80000000000000E-01   0.00000000000000E+00   0.00000000000000E+00
      1.07352385251673E-05   2.02727161182572E-22   1.07352385251673E-05   3.32593251846574E-16
      2.50000000000000E-01
      1.95000000000000E-01   1.95000000000000E-01   0.00000000000000E+00   0.00000000000000E+00   0.00000000000000E+00
      0.00000000000000E+00   0.00000000000000E+00  -3.69248000159032E-16   0.00000000000000E+00   0.00000000000000E+00
      0.00000000000000E+00   0.00000000000000E+00  -1.58839496750426E-05   3.22094499344178E-24  -1.58839496750426E-05
      4.50759306006485E-17   7.80000000000000E-01   7.80000000000000E-01   0.00000000000000E+00   0.00000000000000E+00
      1.58839509924945E-05   4.80959741863141E-23   1.58839509924945E-05   3.28149754954807E-16
      2.66666666666667E-01
      2.08000000000000E-01   2.08000000000000E-01   0.00000000000000E+00   0.00000000000000E+00   0.00000000000000E+00
      0.00000000000000E+00   0.00000000000000E+00  -3.58804182973462E-16   0.00000000000000E+00   0.00000000000000E+00
      0.00000000000000E+00   0.00000000000000E+00  -2.31509452522800E-05   1.28078258918776E-24  -2.31509452522800E-05
      4.01093579888641E-17   7.80000000000000E-01   7.80000000000000E-01   0.00000000000000E+00   0.00000000000000E+00
      2.31509481942461E-05   3.67422035514173E-23   2.31509481942461E-05   3.23704557862086E-16
      2.83333333333333E-01
      2.21000000000000E-01   2.21000000000000E-01   0.00000000000000E+00   0.00000000000000E+00   0.00000000000000E+00
      0.00000000000000E+00   0.00000000000000E+00  -3.48061172851866E-16   0.00000000000000E+00   0.00000000000000E+00
      0.00000000000000E+00   0.00000000000000E+00  -3.31534311834741E-05   1.23110022600221E-24  -3.31534311834741E-05
      3.51675305437072E-17   7.80000000000000E-01   7.80000000000000E-01   0.00000000000000E+00   0.00000000000000E+00
      3.31534367546136E-05   1.04581097533944E-24   3.31534367546136E-05   3.19258478021808E-16
      3.00000000000000E-01
      2.34000000000000E-01   2.34000000000000E-01   0.00000000000000E+00   0.00000000000000E+00   0.00000000000000E+00
      0.00000000000000E+00   0.00000000000000E+00  -3.36964897621399E-16   0.00000000000000E+00   0.00000000000000E+00
      0.00000000000000E+00   0.00000000000000E+00  -4.65521004376426E-05   6.80740723882194E-24  -4.65521004376426E-05
      3.02581300863992E-17   7.80000000000000E-01   7.80000000000000E-01   0.00000000000000E+00   0.00000000000000E+00
      4.65521093655550E-05   1.08879991627149E-24   4.65521093655550E-05   3.14812306224123E-16
      3.16666666666667E-01
      2.47000000000000E-01   2.47000000000000E-01   0.00000000000000E+00   0.00000000000000E+00   0.00000000000000E+00
      0.00000000000000E+00   0.00000000000000E+00  -3.25463013355788E-16   0.00000000000000E+00   0.00000000000000E+00
      0.00000000000000E+00   0.00000000000000E+00  -6.40290368853940E-05   1.07374978936253E-23  -6.40290368853940E-05
      2.53880320965557E-17   7.80000000000000E-01   7.80000000000000E-01   0.00000000000000E+00   0.00000000000000E+00
      6.40290491731268E-05   8.59009719551948E-25   6.40290491731268E-05   3.10366752817233E-16
      3.33333333333333E-01
      2.60000000000000E-01   2.60000000000000E-01   0.00000000000000E+00   0.00000000000000E+00   0.00000000000000E+00
      0.00000000000000E+00   0.00000000000000E+00  -3.13496108921475E-16   0.00000000000000E+00   0.00000000000000E+00
      0.00000000000000E+00   0.00000000000000E+00  -8.64134637398524E-05   9.97147240854442E-24  -8.64134637398524E-05
      2.05639321432781E-17   7.80000000000000E-01   7.80000000000000E-01   0.00000000000000E+00   0.00000000000000E+00
      8.64134789339075E-05   3.47944743543987E-25   8.64134789339075E-05   3.05922572620030E-16
      3.50000000000000E-01
      2.73000000000000E-01   2.73000000000000E-01   0.00000000000000E+00   0.00000000000000E+00   0.00000000000000E+00
      0.00000000000000E+00   0.00000000000000E+00  -3.01192753741061E-16   0.00000000000000E+00   0.00000000000000E+00
      0.00000000000000E+00   0.00000000000000E+00  -1.12130299177925E-04   1.03065901418282E-23  -1.12130299177925E-04
      1.57747961836560E-17   7.80000000000000E-01   7.80000000000000E-01   0.00000000000000E+00   0.00000000000000E+00
      1.12130323063819E-04  -3.13766003797432E-25   1.12130323063819E-04   3.01477347117067E-16
      3.66666666666667E-01
      2.86000000000000E-01   2.86000000000000E-01   0.00000000000000E+00   0.00000000000000E+00   0.00000000000000E+00
      0.00000000000000E+00   0.00000000000000E+00  -2.88564996693545E-16   0.00000000000000E+00   0.00000000000000E+00
      0.00000000000000E+00   0.00000000000000E+00  -1.40911404732470E-04  -7.31451399375881E-23  -1.40911404732470E-04
      1.10181368628834E-17   7.80000000000000E-01   7.80000000000000E-01   0.00000000000000E+00   0.00000000000000E+00
      1.40911407053367E-04   4.13303111646854E-26   1.40911407053367E-04   2.97030736565963E-16
      3.83333333333333E-01
      2.99000000000000E-01   2.99000000000000E-01   0.00000000000000E+00   0.00000000000000E+00   0.00000000000000E+00
      0.00000000000000E+00   0.00000000000000E+00  -2.75529826143846E-16   0.00000000000000E+00   0.00000000000000E+00
      0.00000000000000E+00   0.00000000000000E+00  -1.73743665618347E-04   1.16823070885006E-24  -1.73743665618347E-04
      6.30403326744661E-18   7.80000000000000E-01   7.80000000000000E-01   0.00000000000000E+00   0.00000000000000E+00
      1.73743676338989E-04   1.24456177232780E-25   1.73743676338989E-04   2.92583828089413E-16
      4.00000000000000E-01
      3.12000000000000E-01   3.12000000000000E-01   0.00000000000000E+00   0.00000000000000E+00   0.00000000000000E+00
      0.00000000000000E+00   0.00000000000000E+00  -2.62103042243278E-16   0.00000000000000E+00   0.00000000000000E+00
      0.00000000000000E+00   0.00000000000000E+00  -2.10492491587737E-04   1.85931417358176E-25  -2.10492491587737E-04
      1.62943177693405E-18   7.80000000000000E-01   7.80000000000000E-01   0.00000000000000E+00   0.00000000000000E+00
      2.10492497647754E-04   7.32556296500547E-26   2.10492497647754E-04   2.88136160723260E-16
      4.16666666666667E-01
      3.25000000000000E-01   3.25000000000000E-01   0.00000000000000E+00   0.00000000000000E+00   0.00000000000000E+00
      0.00000000000000E+00   0.00000000000000E+00  -2.48304017533339E-16   0.00000000000000E+00   0.00000000000000E+00
      0.00000000000000E+00   0.00000000000000E+00  -2.50956018707461E-04  -7.06483248724489E-25  -2.50956018707461E-04
     -3.00865559900365E-18   7.80000000000000E-01   7.80000000000000E-01   0.00000000000000E+00   0.00000000000000E+00
      2.50956022497171E-04   4.37044105133009E-26   2.50956022497171E-04   2.83687205450469E-16
      4.33333333333333E-01
      3.38000000000000E-01   3.38000000000000E-01   0.00000000000000E+00   0.00000000000000E+00   0.00000000000000E+00
      0.00000000000000E+00   0.00000000000000E+00  -2.34154298455777E-16   0.00000000000000E+00   0.00000000000000E+00
      0.00000000000000E+00   0.00000000000000E+00  -2.94901570198129E-04  -6.17053393261290E-25  -2.94901570198129E-04
     -7.61316582157018E-18   7.80000000000000E-01   7.80000000000000E-01   0.00000000000000E+00   0.00000000000000E+00
      2.94901572722695E-04   2.49840432687670E-26   2.94901572722695E-04   2.79236389939089E-16
      4.50000000000000E-01
      3.51000000000000E-01   3.51000000000000E-01   0.00000000000000E+00   0.00000000000000E+00   0.00000000000000E+00
      0.00000000000000E+00   0.00000000000000E+00  -2.19675162494175E-16   0.00000000000000E+00   0.00000000000000E+00
      0.00000000000000E+00   0.00000000000000E+00  -3.42087715010512E-04  -6.52945075820757E-25  -3.42087715010512E-04
     -1.21869502234861E-17   7.80000000000000E-01   7.80000000000000E-01   0.00000000000000E+00   0.00000000000000E+00
      3.42087716775668E-04   1.30280007320329E-26   3.42087716775668E-04   2.74783147929399E-16
      4.66666666666667E-01
      3.64000000000000E-01   3.64000000000000E-01   0.00000000000000E+00   0.00000000000000E+00   0.00000000000000E+00
      0.00000000000000E+00   0.00000000000000E+00  -2.04886988802617E-16   0.00000000000000E+00   0.00000000000000E+00
      0.00000000000000E+00   0.00000000000000E+00  -3.92277430471714E-04  -6.88335895336445E-25  -3.92277430471714E-04
     -1.67326412573799E-17   7.80000000000000E-01   7.80000000000000E-01   0.00000000000000E+00   0.00000000000000E+00
      3.92277431759872E-04   5.91736490553483E-27   3.92277431759872E-04   2.70326937410033E-16
      4.83333333333333E-01
      3.77000000000000E-01   3.77000000000000E-01   0.00000000000000E+00   0.00000000000000E+00   0.00000000000000E+00
      0.00000000000000E+00   0.00000000000000E+00  -1.89809144228148E-16   0.00000000000000E+00   0.00000000000000E+00
      0.00000000000000E+00   0.00000000000000E+00  -4.45246886306946E-04  -1.73366254063982E-24  -4.45246886306946E-04
     -2.12526786219898E-17   7.80000000000000E-01   7.80000000000000E-01   0.00000000000000E+00   0.00000000000000E+00
      4.45246887253929E-04   2.22537600796916E-27   4.45246887253929E-04   2.65867234809175E-16
      5.00000000000000E-01
      3.90000000000000E-01   3.90000000000000E-01   0.00000000000000E+00   0.00000000000000E+00   0.00000000000000E+00
      0.00000000000000E+00   0.00000000000000E+00  -1.74459696935177E-16   0.00000000000000E+00   0.00000000000000E+00
      0.00000000000000E+00   0.00000000000000E+00  -5.00786871671138E-04  -1.28535333229320E-28  -5.00786871671138E-04
     -2.57493102289133E-17   7.80000000000000E-01   7.80000000000000E-01   0.00000000000000E+00   0.00000000000000E+00
      5.00786872392153E-04   6.73672827382803E-28   5.00786872392153E-04   2.61403533547203E-16
      5.16666666666667E-01
      4.03000000000000E-01   4.03000000000000E-01   0.00000000000000E+00   0.00000000000000E+00   0.00000000000000E+00
      0.00000000000000E+00   0.00000000000000E+00  -1.58855255701239E-16   0.00000000000000E+00   0.00000000000000E+00
      0.00000000000000E+00   0.00000000000000E+00  -5.58701820256569E-04  -3.65259298070010E-25  -5.58701820256569E-04
     -3.02245704238657E-17   7.80000000000000E-01   7.80000000000000E-01   0.00000000000000E+00   0.00000000000000E+00
      5.58701820827177E-04   2.06859664060267E-28   5.58701820827177E-04   2.56935389842671E-16
      5.33333333333333E-01
      4.16000000000000E-01   4.16000000000000E-01   0.00000000000000E+00   0.00000000000000E+00   0.00000000000000E+00
      0.00000000000000E+00   0.00000000000000E+00  -1.43011362952926E-16   0.00000000000000E+00   0.00000000000000E+00
      0.00000000000000E+00   0.00000000000000E+00  -6.18811128120539E-04  -2.62756156853680E-25  -6.18811128120539E-04
     -3.46803357618806E-17   7.80000000000000E-01   7.80000000000000E-01   0.00000000000000E+00   0.00000000000000E+00
      6.18811128573733E-04   1.32679840078541E-28   6.18811128573733E-04   2.52462376084075E-16
      5.50000000000000E-01
      4.29000000000000E-01   4.29000000000000E-01   0.00000000000000E+00   0.00000000000000E+00   0.00000000000000E+00
      0.00000000000000E+00   0.00000000000000E+00  -1.26942682220788E-16   0.00000000000000E+00   0.00000000000000E+00
      0.00000000000000E+00   0.00000000000000E+00  -6.80947542115567E-04  -1.61936198001474E-25  -6.80947542115567E-04
     -3.91183222374216E-17   7.80000000000000E-01   7.80000000000000E-01   0.00000000000000E+00   0.00000000000000E+00
      6.80947542485842E-04   1.31504641184568E-28   6.80947542485842E-04   2.47984084999424E-16
      5.66666666666667E-01
      4.42000000000000E-01   4.42000000000000E-01   0.00000000000000E+00   0.00000000000000E+00   0.00000000000000E+00
      0.00000000000000E+00   0.00000000000000E+00  -1.10662613406758E-16   0.00000000000000E+00   0.00000000000000E+00
      0.00000000000000E+00   0.00000000000000E+00  -7.44955288158674E-04  -4.82149912782390E-26  -7.44955288158674E-04
     -4.35401238634918E-17   7.80000000000000E-01   7.80000000000000E-01   0.00000000000000E+00   0.00000000000000E+00
      7.44955288467677E-04   1.24451120587110E-28   7.44955288467677E-04   2.43500177220261E-16
      5.83333333333333E-01
      4.55000000000000E-01   4.55000000000000E-01   0.00000000000000E+00   0.00000000000000E+00   0.00000000000000E+00
      0.00000000000000E+00   0.00000000000000E+00  -9.41837569799084E-17   0.00000000000000E+00   0.00000000000000E+00
      0.00000000000000E+00   0.00000000000000E+00  -8.10689408701971E-04  -2.84764428962484E-26  -8.10689408701971E-04
     -4.79472146215038E-17   7.80000000000000E-01   7.80000000000000E-01   0.00000000000000E+00   0.00000000000000E+00
      8.10689408950462E-04   1.00344249775883E-28   8.10689408950462E-04   2.39010351995664E-16
      6.00000000000000E-01
      4.68000000000000E-01   4.68000000000000E-01   0.00000000000000E+00   0.00000000000000E+00   0.00000000000000E+00
      0.00000000000000E+00   0.00000000000000E+00  -7.75180618600753E-17   0.00000000000000E+00   0.00000000000000E+00
      0.00000000000000E+00   0.00000000000000E+00  -8.78015027822268E-04   1.03939384633156E-26  -8.78015027822268E-04
     -5.23409670802232E-17   7.80000000000000E-01   7.80000000000000E-01   0.00000000000000E+00   0.00000000000000E+00
      8.78015028041432E-04   7.30333753783371E-29   8.78015028041432E-04   2.34514327819474E-16
      6.16666666666667E-01
      4.81000000000000E-01   4.81000000000000E-01   0.00000000000000E+00   0.00000000000000E+00   0.00000000000000E+00
      0.00000000000000E+00   0.00000000000000E+00  -6.06766612191841E-17   0.00000000000000E+00   0.00000000000000E+00
      0.00000000000000E+00   0.00000000000000E+00  -9.46805276034344E-04   1.05580393176125E-25  -9.46805276034344E-04
     -5.67226655630002E-17   7.80000000000000E-01   7.80000000000000E-01   0.00000000000000E+00   0.00000000000000E+00
      9.46806189477932E-04  -3.91338374272091E-27   9.46806189477932E-04   2.30011870453662E-16
      6.33333333333334E-01
      4.94000000000000E-01   4.94000000000000E-01   0.00000000000000E+00   0.00000000000000E+00   0.00000000000000E+00
      0.00000000000000E+00   0.00000000000000E+00  -4.36701110260200E-17   0.00000000000000E+00   0.00000000000000E+00
      0.00000000000000E+00   0.00000000000000E+00  -1.01694432845732E-03   2.66556053438505E-27  -1.01694432845732E-03
     -6.10935002110616E-17   7.80000000000000E-01   7.80000000000000E-01   0.00000000000000E+00   0.00000000000000E+00
      1.01694432861988E-03   3.29579058647257E-29   1.01694432861988E-03   2.25502786181259E-16
      6.50000000000000E-01
      5.07000000000000E-01   5.07000000000000E-01   0.00000000000000E+00   0.00000000000000E+00   0.00000000000000E+00
      0.00000000000000E+00   0.00000000000000E+00  -2.65083170201338E-17   0.00000000000000E+00   0.00000000000000E+00
      0.00000000000000E+00   0.00000000000000E+00  -1.08831896959168E-03   4.24467106892524E-29  -1.08831896959168E-03
     -6.54545805425505E-17   7.80000000000000E-01   7.80000000000000E-01   0.00000000000000E+00   0.00000000000000E+00
      1.08831896973352E-03   2.12162334366186E-29   1.08831896973352E-03   2.20986919462932E-16
      6.66666666666667E-01
      5.20000000000000E-01   5.20000000000000E-01   0.00000000000000E+00   0.00000000000000E+00   0.00000000000000E+00
      0.00000000000000E+00   0.00000000000000E+00  -9.20054567797720E-18   0.00000000000000E+00   0.00000000000000E+00
      0.00000000000000E+00   0.00000000000000E+00  -1.16082658418452E-03  -2.07432132255469E-28  -1.16082658418452E-03
     -6.98069558191376E-17   7.80000000000000E-01   7.80000000000000E-01   0.00000000000000E+00   0.00000000000000E+00
      1.16082658430848E-03   1.30818940380914E-29   1.16082658430848E-03   2.16464162692934E-16
      6.83333333333334E-01
      5.33000000000000E-01   5.33000000000000E-01   0.00000000000000E+00   0.00000000000000E+00   0.00000000000000E+00
      0.00000000000000E+00   0.00000000000000E+00   8.24427122674665E-18   0.00000000000000E+00   0.00000000000000E+00
      0.00000000000000E+00   0.00000000000000E+00  -1.23436961712874E-03   1.45064839646971E-26  -1.23436961712874E-03
     -7.41516004659478E-17   7.80000000000000E-01   7.80000000000000E-01   0.00000000000000E+00   0.00000000000000E+00
      1.23437068795585E-03  -1.26668873697039E-27   1.23437068795585E-03   2.11934386397337E-16
      7.00000000000001E-01
      5.46000000000000E-01   5.46000000000000E-01   0.00000000000000E+00   0.00000000000000E+00   0.00000000000000E+00
      0.00000000000000E+00   0.00000000000000E+00   2.58179300737176E-17   0.00000000000000E+00   0.00000000000000E+00
      0.00000000000000E+00   0.00000000000000E+00  -1.30886004313017E-03  -7.62807654412996E-29  -1.30886004313017E-03
     -7.84894250414103E-17   7.80000000000000E-01   7.80000000000000E-01   0.00000000000000E+00   0.00000000000000E+00
      1.30886004322623E-03   4.55633078038015E-30   1.30886004322623E-03   2.07397533733675E-16
      7.16666666666667E-01
      5.59000000000000E-01   5.59000000000000E-01   0.00000000000000E+00   0.00000000000000E+00   0.00000000000000E+00
      0.00000000000000E+00   0.00000000000000E+00   4.35126773534087E-17   0.00000000000000E+00   0.00000000000000E+00
      0.00000000000000E+00   0.00000000000000E+00  -1.38421012045978E-03   5.78422382992459E-29  -1.38421012045978E-03
     -8.28212702993829E-17   7.80000000000000E-01   7.80000000000000E-01   0.00000000000000E+00   0.00000000000000E+00
      1.38421012054483E-03   2.65705448909347E-30   1.38421012054483E-03   2.02853573000986E-16
      7.33333333333334E-01
      5.72000000000001E-01   5.72000000000001E-01   0.00000000000000E+00   0.00000000000000E+00   0.00000000000000E+00
      0.00000000000000E+00   0.00000000000000E+00   6.13215110718940E-17   0.00000000000000E+00   0.00000000000000E+00
      0.00000000000000E+00   0.00000000000000E+00  -1.46034086703062E-03  -2.58417370069887E-28  -1.46034086703062E-03
     -8.71479184393002E-17   7.80000000000000E-01   7.80000000000000E-01   0.00000000000000E+00   0.00000000000000E+00
      1.46034086710657E-03   1.50480590582416E-30   1.46034086710657E-03   1.98302579538563E-16
      7.50000000000001E-01
      5.85000000000001E-01   5.85000000000001E-01   0.00000000000000E+00   0.00000000000000E+00   0.00000000000000E+00
      0.00000000000000E+00   0.00000000000000E+00   7.92376591779755E-17   0.00000000000000E+00   0.00000000000000E+00
      0.00000000000000E+00   0.00000000000000E+00  -1.53717803686294E-03  -1.90921423568727E-28  -1.53717803686294E-03
     -9.14700922062983E-17   7.80000000000000E-01   7.80000000000000E-01   0.00000000000000E+00   0.00000000000000E+00
      1.53717803693035E-03   7.79723549906307E-31   1.53717803693035E-03   1.93744585603000E-16
      7.66666666666667E-01
      5.98000000000001E-01   5.98000000000001E-01   0.00000000000000E+00   0.00000000000000E+00   0.00000000000000E+00
      0.00000000000000E+00   0.00000000000000E+00   9.72542796720998E-17   0.00000000000000E+00   0.00000000000000E+00
      0.00000000000000E+00   0.00000000000000E+00  -1.61465367857359E-03  -1.22272923701896E-28  -1.61465367857359E-03
     -9.57884666515657E-17   7.80000000000000E-01   7.80000000000000E-01   0.00000000000000E+00   0.00000000000000E+00
      1.61465367863369E-03   3.37440368380815E-31   1.61465367863369E-03   1.89179473675230E-16
      7.83333333333334E-01
      6.11000000000001E-01   6.11000000000001E-01   0.00000000000000E+00   0.00000000000000E+00   0.00000000000000E+00
      0.00000000000000E+00   0.00000000000000E+00   1.15366089522880E-16   0.00000000000000E+00   0.00000000000000E+00
      0.00000000000000E+00   0.00000000000000E+00  -1.69270169211826E-03  -8.31409425790658E-29  -1.69270169211826E-03
     -1.00103648740403E-16   7.80000000000000E-01   7.80000000000000E-01   0.00000000000000E+00   0.00000000000000E+00
      1.69270169217222E-03   1.69143236923627E-31   1.69270169217222E-03   1.84607518435220E-16
      8.00000000000001E-01
      6.24000000000001E-01   6.24000000000001E-01   0.00000000000000E+00   0.00000000000000E+00   0.00000000000000E+00
      0.00000000000000E+00   0.00000000000000E+00   1.33567408302758E-16   0.00000000000000E+00   0.00000000000000E+00