DF-ISE text

Info {
  version   = 1.0
  type      = xyplot
  datasets  = [
    "time"
    "gate OuterVoltage" "gate InnerVoltage" "gate QuasiFermiPotential" "gate DisplacementCurrent" "gate eCurrent"
    "gate hCurrent" "gate TotalCurrent" "gate Charge" "source OuterVoltage" "source InnerVoltage"
    "source QuasiFermiPotential" "source DisplacementCurrent" "source eCurrent" "source hCurrent" "source TotalCurrent"
    "source Charge" "drain OuterVoltage" "drain InnerVoltage" "drain QuasiFermiPotential" "drain DisplacementCurrent"
    "drain eCurrent" "drain hCurrent" "drain TotalCurrent" "drain Charge" ]
  functions = [
    Time
    OuterVoltage InnerVoltage QuasiFermiPotential DisplacementCurrent eCurrent
    hCurrent TotalCurrent Charge OuterVoltage InnerVoltage
    QuasiFermiPotential DisplacementCurrent eCurrent hCurrent TotalCurrent
    Charge OuterVoltage InnerVoltage QuasiFermiPotential DisplacementCurrent
    eCurrent hCurrent TotalCurrent Charge ]
}

Data {
      0.00000000000000E+00
      0.00000000000000E+00   0.00000000000000E+00   0.00000000000000E+00   0.00000000000000E+00   0.00000000000000E+00
      0.00000000000000E+00   0.00000000000000E+00  -4.82016041173983E-16   0.00000000000000E+00   0.00000000000000E+00
      0.00000000000000E+00   0.00000000000000E+00  -6.59180210918211E-08  -3.03495473802841E-27  -6.59180210918211E-08
      1.08837477353579E-16   7.50000000000000E-01   7.50000000000000E-01   0.00000000000000E+00   0.00000000000000E+00
      6.59180210917515E-08  -9.99631209451288E-25   6.59180210917515E-08   3.74392376958958E-16
      1.66666666666667E-02
      1.25000000000000E-02   1.25000000000000E-02   0.00000000000000E+00   0.00000000000000E+00   0.00000000000000E+00
      0.00000000000000E+00   0.00000000000000E+00  -4.73105898946795E-16   0.00000000000000E+00   0.00000000000000E+00
      0.00000000000000E+00   0.00000000000000E+00  -1.01195332478023E-07   4.65386072098167E-20  -1.01195332477977E-07
      1.04170409067629E-16   7.50000000000000E-01   7.50000000000000E-01   0.00000000000000E+00   0.00000000000000E+00
      1.01195577330765E-07   1.10333710640897E-18   1.01195577331868E-07   3.70165502625042E-16
      3.33333333333333E-02
      2.50000000000000E-02   2.50000000000000E-02   0.00000000000000E+00   0.00000000000000E+00   0.00000000000000E+00
      0.00000000000000E+00   0.00000000000000E+00  -4.64171450678818E-16   0.00000000000000E+00   0.00000000000000E+00
      0.00000000000000E+00   0.00000000000000E+00  -1.55157536683431E-07  -1.28586197879164E-24  -1.55157536683431E-07
      9.94890504460096E-17   7.50000000000000E-01   7.50000000000000E-01   0.00000000000000E+00   0.00000000000000E+00
      1.55157536683659E-07   8.34179681845929E-21   1.55157536683667E-07   3.65934289606083E-16
      5.00000000000000E-02
      3.75000000000000E-02   3.75000000000000E-02   0.00000000000000E+00   0.00000000000000E+00   0.00000000000000E+00
      0.00000000000000E+00   0.00000000000000E+00  -4.55210447703349E-16   0.00000000000000E+00   0.00000000000000E+00
      0.00000000000000E+00   0.00000000000000E+00  -2.37551218784456E-07   1.99670588612218E-21  -2.37551218784454E-07
      9.47932573458457E-17   7.50000000000000E-01   7.50000000000000E-01   0.00000000000000E+00   0.00000000000000E+00
      2.37551222151768E-07   4.29112034766504E-19   2.37551222152197E-07   3.61698729914262E-16
      6.66666666666667E-02
      5.00000000000000E-02   5.00000000000000E-02   0.00000000000000E+00   0.00000000000000E+00   0.00000000000000E+00
      0.00000000000000E+00   0.00000000000000E+00  -4.46219988499504E-16   0.00000000000000E+00   0.00000000000000E+00
      0.00000000000000E+00   0.00000000000000E+00  -3.63087938641311E-07   4.29864225415307E-22  -3.63087938641310E-07
      9.00830278209036E-17   7.50000000000000E-01   7.50000000000000E-01   0.00000000000000E+00   0.00000000000000E+00
      3.63087941075311E-07   6.91046113913695E-20   3.63087941075380E-07   3.57458827226923E-16
      8.33333333333333E-02
      6.25000000000000E-02   6.25000000000000E-02   0.00000000000000E+00   0.00000000000000E+00   0.00000000000000E+00
      0.00000000000000E+00   0.00000000000000E+00  -4.37196268438578E-16   0.00000000000000E+00   0.00000000000000E+00
      0.00000000000000E+00   0.00000000000000E+00  -5.53865264309155E-07   1.39610991263945E-23  -5.53865264309155E-07
      8.53585603726501E-17   7.50000000000000E-01   7.50000000000000E-01   0.00000000000000E+00   0.00000000000000E+00
      5.53865266697999E-07   3.10206608951705E-21   5.53865266698002E-07   3.53214602494000E-16
      1.00000000000000E-01
      7.50000000000000E-02   7.50000000000000E-02   0.00000000000000E+00   0.00000000000000E+00   0.00000000000000E+00
      0.00000000000000E+00   0.00000000000000E+00  -4.28134234003430E-16   0.00000000000000E+00   0.00000000000000E+00
      0.00000000000000E+00   0.00000000000000E+00  -8.42872966666710E-07  -1.41413605013888E-24  -8.42872966666710E-07
      8.06203295364603E-17   7.50000000000000E-01   7.50000000000000E-01   0.00000000000000E+00   0.00000000000000E+00
      8.42872969252206E-07  -1.33057632905549E-23   8.42872969252206E-07   3.48966101437747E-16
      1.16666666666667E-01
      8.75000000000000E-02   8.75000000000000E-02   0.00000000000000E+00   0.00000000000000E+00   0.00000000000000E+00
      0.00000000000000E+00   0.00000000000000E+00  -4.19027114097004E-16   0.00000000000000E+00   0.00000000000000E+00
      0.00000000000000E+00   0.00000000000000E+00  -1.27897148808825E-06   1.12288617632745E-23  -1.27897148808825E-06
      7.58691817745542E-17   7.50000000000000E-01   7.50000000000000E-01   0.00000000000000E+00   0.00000000000000E+00
      1.27897149083365E-06   1.60952744788657E-22   1.27897149083365E-06   3.44713404816280E-16
      1.33333333333333E-01
      1.00000000000000E-01   1.00000000000000E-01   0.00000000000000E+00   0.00000000000000E+00   0.00000000000000E+00
      0.00000000000000E+00   0.00000000000000E+00  -4.09865802263552E-16   0.00000000000000E+00   0.00000000000000E+00
      0.00000000000000E+00   0.00000000000000E+00  -1.93377426043246E-06   1.25612273068714E-23  -1.93377426043246E-06
      7.11064529987556E-17   7.50000000000000E-01   7.50000000000000E-01   0.00000000000000E+00   0.00000000000000E+00
      1.93377426399286E-06   2.27296883661308E-22   1.93377426399287E-06   3.40456642302973E-16
      1.50000000000000E-01
      1.12500000000000E-01   1.12500000000000E-01   0.00000000000000E+00   0.00000000000000E+00   0.00000000000000E+00
      0.00000000000000E+00   0.00000000000000E+00  -4.00638075325290E-16   0.00000000000000E+00   0.00000000000000E+00
      0.00000000000000E+00   0.00000000000000E+00  -2.91080212647368E-06   1.18557679355560E-23  -2.91080212647368E-06
      6.63341052788218E-17   7.50000000000000E-01   7.50000000000000E-01   0.00000000000000E+00   0.00000000000000E+00
      2.91080213489547E-06   2.93871294992258E-22   2.91080213489547E-06   3.36196010094078E-16
      1.66666666666667E-01
      1.25000000000000E-01   1.25000000000000E-01   0.00000000000000E+00   0.00000000000000E+00   0.00000000000000E+00
      0.00000000000000E+00   0.00000000000000E+00  -3.91327667844334E-16   0.00000000000000E+00   0.00000000000000E+00
      0.00000000000000E+00   0.00000000000000E+00  -4.35698511045113E-06   1.18069623296836E-23  -4.35698511045113E-06
      6.15548729475803E-17   7.50000000000000E-01   7.50000000000000E-01   0.00000000000000E+00   0.00000000000000E+00
      4.35698513901872E-06   3.72285585277274E-22   4.35698513901872E-06   3.31931791785893E-16
      1.83333333333333E-01
      1.37500000000000E-01   1.37500000000000E-01   0.00000000000000E+00   0.00000000000000E+00   0.00000000000000E+00
      0.00000000000000E+00   0.00000000000000E+00  -3.81913289633990E-16   0.00000000000000E+00   0.00000000000000E+00
      0.00000000000000E+00   0.00000000000000E+00  -6.47589010189933E-06   1.01452095963960E-23  -6.47589010189933E-06
      5.67723963009288E-17   7.50000000000000E-01   7.50000000000000E-01   0.00000000000000E+00   0.00000000000000E+00
      6.47589019641979E-06   4.27533360152731E-22   6.47589019641979E-06   3.27664380918107E-16
      2.00000000000000E-01
      1.50000000000000E-01   1.50000000000000E-01   0.00000000000000E+00   0.00000000000000E+00   0.00000000000000E+00
      0.00000000000000E+00   0.00000000000000E+00  -3.72367781928415E-16   0.00000000000000E+00   0.00000000000000E+00
      0.00000000000000E+00   0.00000000000000E+00  -9.54080497641428E-06   4.12738453113557E-24  -9.54080497641428E-06
      5.19913049554912E-17   7.50000000000000E-01   7.50000000000000E-01   0.00000000000000E+00   0.00000000000000E+00
      9.54080525686956E-06   3.75792826186674E-22   9.54080525686956E-06   3.23394301744945E-16
      2.16666666666667E-01
      1.62500000000000E-01   1.62500000000000E-01   0.00000000000000E+00   0.00000000000000E+00   0.00000000000000E+00
      0.00000000000000E+00   0.00000000000000E+00  -3.62657739062501E-16   0.00000000000000E+00   0.00000000000000E+00
      0.00000000000000E+00   0.00000000000000E+00  -1.39041079749179E-05   1.46538201520879E-23  -1.39041079749179E-05
      4.72171976092569E-17   7.50000000000000E-01   7.50000000000000E-01   0.00000000000000E+00   0.00000000000000E+00
      1.39041086935766E-05   1.71797973775293E-22   1.39041086935766E-05   3.19122222590014E-16
      2.33333333333333E-01
      1.75000000000000E-01   1.75000000000000E-01   0.00000000000000E+00   0.00000000000000E+00   0.00000000000000E+00
      0.00000000000000E+00   0.00000000000000E+00  -3.52744004273378E-16   0.00000000000000E+00   0.00000000000000E+00
      0.00000000000000E+00   0.00000000000000E+00  -1.99979137272705E-05   3.09702268088313E-25  -1.99979137272705E-05
      4.24564621612637E-17   7.50000000000000E-01   7.50000000000000E-01   0.00000000000000E+00   0.00000000000000E+00
      1.99979153397537E-05   2.66127253143496E-23   1.99979153397537E-05   3.14848952388445E-16
      2.50000000000000E-01
      1.87500000000000E-01   1.87500000000000E-01   0.00000000000000E+00   0.00000000000000E+00   0.00000000000000E+00
      0.00000000000000E+00   0.00000000000000E+00  -3.42583344215643E-16   0.00000000000000E+00   0.00000000000000E+00
      0.00000000000000E+00   0.00000000000000E+00  -2.83214347342563E-05   2.14888027172008E-24  -2.83214347342563E-05
      3.77159081432216E-17   7.50000000000000E-01   7.50000000000000E-01   0.00000000000000E+00   0.00000000000000E+00
      2.83214378414651E-05   1.90657113971787E-23   2.83214378414651E-05   3.10575403703659E-16
      2.66666666666667E-01
      2.00000000000000E-01   2.00000000000000E-01   0.00000000000000E+00   0.00000000000000E+00   0.00000000000000E+00
      0.00000000000000E+00   0.00000000000000E+00  -3.32131177614785E-16   0.00000000000000E+00   0.00000000000000E+00
      0.00000000000000E+00   0.00000000000000E+00  -3.94150298244080E-05   1.19180697580342E-25  -3.94150298244080E-05
      3.30022536828720E-17   7.50000000000000E-01   7.50000000000000E-01   0.00000000000000E+00   0.00000000000000E+00
      3.94150349650107E-05   4.40185410075546E-24   3.94150349650107E-05   3.06302512908705E-16
      2.83333333333333E-01
      2.12500000000000E-01   2.12500000000000E-01   0.00000000000000E+00   0.00000000000000E+00   0.00000000000000E+00
      0.00000000000000E+00   0.00000000000000E+00  -3.21344387553468E-16   0.00000000000000E+00   0.00000000000000E+00
      0.00000000000000E+00   0.00000000000000E+00  -5.38317604878804E-05   1.93148323179715E-24  -5.38317604878804E-05
      2.83216196106245E-17   7.50000000000000E-01   7.50000000000000E-01   0.00000000000000E+00   0.00000000000000E+00
      5.38317678292853E-05   3.72270931249782E-25   5.38317678292853E-05   3.02031154150151E-16
      3.00000000000000E-01
      2.25000000000000E-01   2.25000000000000E-01   0.00000000000000E+00   0.00000000000000E+00   0.00000000000000E+00
      0.00000000000000E+00   0.00000000000000E+00  -3.10181341454811E-16   0.00000000000000E+00   0.00000000000000E+00
      0.00000000000000E+00   0.00000000000000E+00  -7.21435649264615E-05   4.63118628145177E-24  -7.21435649264615E-05
      2.36793694408271E-17   7.50000000000000E-01   7.50000000000000E-01   0.00000000000000E+00   0.00000000000000E+00
      7.21435742383619E-05   3.40090822162338E-25   7.21435742383619E-05   2.97762127922149E-16
      3.16666666666667E-01
      2.37500000000000E-01   2.37500000000000E-01   0.00000000000000E+00   0.00000000000000E+00   0.00000000000000E+00
      0.00000000000000E+00   0.00000000000000E+00  -2.98595151589120E-16   0.00000000000000E+00   0.00000000000000E+00
      0.00000000000000E+00   0.00000000000000E+00  -9.50308024804114E-05   1.18806343343393E-24  -9.50308024804114E-05
      1.90810390165687E-17   7.50000000000000E-01   7.50000000000000E-01   0.00000000000000E+00   0.00000000000000E+00
      9.50308202854183E-05  -7.18576842273949E-26   9.50308202854183E-05   2.93496284126284E-16
      3.33333333333333E-01
      2.50000000000000E-01   2.50000000000000E-01   0.00000000000000E+00   0.00000000000000E+00   0.00000000000000E+00
      0.00000000000000E+00   0.00000000000000E+00  -2.86800130452444E-16   0.00000000000000E+00   0.00000000000000E+00
      0.00000000000000E+00   0.00000000000000E+00  -1.19781231203266E-04  -1.45735562186857E-22  -1.19781231203266E-04
      1.45047298789933E-17   7.50000000000000E-01   7.50000000000000E-01   0.00000000000000E+00   0.00000000000000E+00
      1.19781245405358E-04  -1.15792456842244E-24   1.19781245405358E-04   2.89228660030805E-16
      3.50000000000000E-01
      2.62500000000000E-01   2.62500000000000E-01   0.00000000000000E+00   0.00000000000000E+00   0.00000000000000E+00
      0.00000000000000E+00   0.00000000000000E+00  -2.74673931680587E-16   0.00000000000000E+00   0.00000000000000E+00
      0.00000000000000E+00   0.00000000000000E+00  -1.47791734824305E-04   2.63589822421161E-24  -1.47791734824305E-04
      9.96378359617566E-18   7.50000000000000E-01   7.50000000000000E-01   0.00000000000000E+00   0.00000000000000E+00
      1.47791741944873E-04  -6.72430443131885E-27   1.47791741944873E-04   2.84961753222615E-16
      3.66666666666667E-01
      2.75000000000000E-01   2.75000000000000E-01   0.00000000000000E+00   0.00000000000000E+00   0.00000000000000E+00
      0.00000000000000E+00   0.00000000000000E+00  -2.62197677533969E-16   0.00000000000000E+00   0.00000000000000E+00
      0.00000000000000E+00   0.00000000000000E+00  -1.79316294146717E-04   5.10018114302178E-25  -1.79316294146717E-04
      5.46031067342223E-18   7.50000000000000E-01   7.50000000000000E-01   0.00000000000000E+00   0.00000000000000E+00
      1.79316300612129E-04   2.17471782770235E-26   1.79316300612129E-04   2.80695800340834E-16
      3.83333333333333E-01
      2.87500000000000E-01   2.87500000000000E-01   0.00000000000000E+00   0.00000000000000E+00   0.00000000000000E+00
      0.00000000000000E+00   0.00000000000000E+00  -2.49385846634505E-16   0.00000000000000E+00   0.00000000000000E+00
      0.00000000000000E+00   0.00000000000000E+00  -2.14220611884753E-04   3.79858154480197E-26  -2.14220611884753E-04
      9.91620885348116E-19   7.50000000000000E-01   7.50000000000000E-01   0.00000000000000E+00   0.00000000000000E+00
      2.14220615632668E-04   1.40144111297899E-26   2.14220615632668E-04   2.76430340536982E-16
      4.00000000000000E-01
      3.00000000000000E-01   3.00000000000000E-01   0.00000000000000E+00   0.00000000000000E+00   0.00000000000000E+00
      0.00000000000000E+00   0.00000000000000E+00  -2.36255735601871E-16   0.00000000000000E+00   0.00000000000000E+00
      0.00000000000000E+00   0.00000000000000E+00  -2.52326277301976E-04  -4.05255741990117E-25  -2.52326277301976E-04
     -3.44495347929610E-18   7.50000000000000E-01   7.50000000000000E-01   0.00000000000000E+00   0.00000000000000E+00
      2.52326279699755E-04   8.70828058962115E-27   2.52326279699755E-04   2.72164834510567E-16
      4.16666666666667E-01
      3.12500000000000E-01   3.12500000000000E-01   0.00000000000000E+00   0.00000000000000E+00   0.00000000000000E+00
      0.00000000000000E+00   0.00000000000000E+00  -2.22825500745078E-16   0.00000000000000E+00   0.00000000000000E+00
      0.00000000000000E+00   0.00000000000000E+00  -2.93431286586306E-04  -1.06048876936267E-24  -2.93431286586306E-04
     -7.85195347988792E-18   7.50000000000000E-01   7.50000000000000E-01   0.00000000000000E+00   0.00000000000000E+00
      2.93431288224634E-04   5.52525813749149E-27   2.93431288224634E-04   2.67898721751386E-16
      4.33333333333333E-01
      3.25000000000000E-01   3.25000000000000E-01   0.00000000000000E+00   0.00000000000000E+00   0.00000000000000E+00
      0.00000000000000E+00   0.00000000000000E+00  -2.09112973919593E-16   0.00000000000000E+00   0.00000000000000E+00
      0.00000000000000E+00   0.00000000000000E+00  -3.37332661172986E-04  -7.58456900638984E-25  -3.37332661172986E-04
     -1.22318392095312E-17   7.50000000000000E-01   7.50000000000000E-01   0.00000000000000E+00   0.00000000000000E+00
      3.37332662344743E-04   3.40862248076040E-27   3.37332662344743E-04   2.63631445272481E-16
      4.50000000000000E-01
      3.37500000000000E-01   3.37500000000000E-01   0.00000000000000E+00   0.00000000000000E+00   0.00000000000000E+00
      0.00000000000000E+00   0.00000000000000E+00  -1.95135070721652E-16   0.00000000000000E+00   0.00000000000000E+00
      0.00000000000000E+00   0.00000000000000E+00  -3.83831821008474E-04  -1.03841901735999E-24  -3.83831821008474E-04
     -1.65868668119888E-17   7.50000000000000E-01   7.50000000000000E-01   0.00000000000000E+00   0.00000000000000E+00
      3.83831821883271E-04   2.00000345161674E-27   3.83831821883271E-04   2.59362478768510E-16
      4.66666666666667E-01
      3.50000000000000E-01   3.50000000000000E-01   0.00000000000000E+00   0.00000000000000E+00   0.00000000000000E+00
      0.00000000000000E+00   0.00000000000000E+00  -1.80907774652469E-16   0.00000000000000E+00   0.00000000000000E+00
      0.00000000000000E+00   0.00000000000000E+00  -4.32741597992208E-04  -1.49926759479969E-24  -4.32741597992208E-04
     -2.09191316241562E-17   7.50000000000000E-01   7.50000000000000E-01   0.00000000000000E+00   0.00000000000000E+00
      4.32741598642626E-04   1.08320671263302E-27   4.32741598642626E-04   2.55091324635054E-16
      4.83333333333333E-01
      3.62500000000000E-01   3.62500000000000E-01   0.00000000000000E+00   0.00000000000000E+00   0.00000000000000E+00
      0.00000000000000E+00   0.00000000000000E+00  -1.66446153309194E-16   0.00000000000000E+00   0.00000000000000E+00
      0.00000000000000E+00   0.00000000000000E+00  -4.83887656660785E-04   1.90936449221238E-25  -4.83887656660785E-04
     -2.52305750993007E-17   7.50000000000000E-01   7.50000000000000E-01   0.00000000000000E+00   0.00000000000000E+00
      4.83887657166625E-04   5.38420247402027E-28   4.83887657166625E-04   2.50817493881693E-16
      5.00000000000000E-01
      3.75000000000000E-01   3.75000000000000E-01   0.00000000000000E+00   0.00000000000000E+00   0.00000000000000E+00
      0.00000000000000E+00   0.00000000000000E+00  -1.51764028842436E-16   0.00000000000000E+00   0.00000000000000E+00
      0.00000000000000E+00   0.00000000000000E+00  -5.37106440734337E-04  -1.63487146849048E-25  -5.37106440734337E-04
     -2.95229584950632E-17   7.50000000000000E-01   7.50000000000000E-01   0.00000000000000E+00   0.00000000000000E+00
      5.37106441133885E-04   2.45473055733176E-28   5.37106441133885E-04   2.46540559054820E-16
      5.16666666666667E-01
      3.87500000000000E-01   3.87500000000000E-01   0.00000000000000E+00   0.00000000000000E+00   0.00000000000000E+00
      0.00000000000000E+00   0.00000000000000E+00  -1.36874262927802E-16   0.00000000000000E+00   0.00000000000000E+00
      0.00000000000000E+00   0.00000000000000E+00  -5.92246289800627E-04  -1.78478276369553E-25  -5.92246289800627E-04
     -3.37979115361260E-17   7.50000000000000E-01   7.50000000000000E-01   0.00000000000000E+00   0.00000000000000E+00
      5.92246290125916E-04   1.06053434535542E-28   5.92246290125916E-04   2.42260121015506E-16
      5.33333333333333E-01
      4.00000000000000E-01   4.00000000000000E-01   0.00000000000000E+00   0.00000000000000E+00   0.00000000000000E+00
      0.00000000000000E+00   0.00000000000000E+00  -1.21789079590848E-16   0.00000000000000E+00   0.00000000000000E+00
      0.00000000000000E+00   0.00000000000000E+00  -6.49167041390675E-04  -6.57899635970749E-26  -6.49167041390675E-04
     -3.80569382322379E-17   7.50000000000000E-01   7.50000000000000E-01   0.00000000000000E+00   0.00000000000000E+00
      6.49167041654932E-04   5.02131508159198E-29   6.49167041654932E-04   2.37975790374323E-16
      5.50000000000000E-01
      4.12500000000000E-01   4.12500000000000E-01   0.00000000000000E+00   0.00000000000000E+00   0.00000000000000E+00
      0.00000000000000E+00   0.00000000000000E+00  -1.06519818113448E-16   0.00000000000000E+00   0.00000000000000E+00
      0.00000000000000E+00   0.00000000000000E+00  -7.07737629383420E-04  -3.36991784164925E-26  -7.07737629383420E-04
     -4.23014229542971E-17   7.50000000000000E-01   7.50000000000000E-01   0.00000000000000E+00   0.00000000000000E+00
      7.07737629605613E-04   2.96066249347808E-29   7.07737629605613E-04   2.33687223530679E-16
      5.66666666666667E-01
      4.25000000000000E-01   4.25000000000000E-01   0.00000000000000E+00   0.00000000000000E+00   0.00000000000000E+00
      0.00000000000000E+00   0.00000000000000E+00  -9.10769398209697E-17   0.00000000000000E+00   0.00000000000000E+00
      0.00000000000000E+00   0.00000000000000E+00  -7.67836224673453E-04   1.05558663419761E-26  -7.67836224673453E-04
     -4.65326726746606E-17   7.50000000000000E-01   7.50000000000000E-01   0.00000000000000E+00   0.00000000000000E+00
      7.67836224860111E-04   2.23276936870501E-29   7.67836224860111E-04   2.29394125249171E-16
      5.83333333333333E-01
      4.37500000000000E-01   4.37500000000000E-01   0.00000000000000E+00   0.00000000000000E+00   0.00000000000000E+00
      0.00000000000000E+00   0.00000000000000E+00  -7.54704238246299E-17   0.00000000000000E+00   0.00000000000000E+00
      0.00000000000000E+00   0.00000000000000E+00  -8.29348704405741E-04   5.17681321158118E-27  -8.29348704405741E-04
     -5.07518877477204E-17   7.50000000000000E-01   7.50000000000000E-01   0.00000000000000E+00   0.00000000000000E+00
      8.29348704565625E-04   1.76628390088889E-29   8.29348704565625E-04   2.25096223619568E-16
      6.00000000000000E-01
      4.50000000000000E-01   4.50000000000000E-01   0.00000000000000E+00   0.00000000000000E+00   0.00000000000000E+00
      0.00000000000000E+00   0.00000000000000E+00  -5.97095739694058E-17   0.00000000000000E+00   0.00000000000000E+00
      0.00000000000000E+00   0.00000000000000E+00  -8.92168793680992E-04   2.68870387204414E-27  -8.92168793680992E-04
     -5.49602083587175E-17   7.50000000000000E-01   7.50000000000000E-01   0.00000000000000E+00   0.00000000000000E+00
      8.92168793819774E-04   1.39012590697593E-29   8.92168793819774E-04   2.20793280374857E-16
      6.16666666666667E-01
      4.62500000000000E-01   4.62500000000000E-01   0.00000000000000E+00   0.00000000000000E+00   0.00000000000000E+00
      0.00000000000000E+00   0.00000000000000E+00  -4.38032457270389E-17   0.00000000000000E+00   0.00000000000000E+00
      0.00000000000000E+00   0.00000000000000E+00  -9.56196674025644E-04   4.63418085133220E-28  -9.56196674025644E-04
     -5.91586894847811E-17   7.50000000000000E-01   7.50000000000000E-01   0.00000000000000E+00   0.00000000000000E+00
      9.56196674146133E-04   1.00351389878618E-29   9.56196674146133E-04   2.16485085349688E-16
      6.33333333333334E-01
      4.75000000000000E-01   4.75000000000000E-01   0.00000000000000E+00   0.00000000000000E+00   0.00000000000000E+00
      0.00000000000000E+00   0.00000000000000E+00  -2.77598097039669E-17   0.00000000000000E+00   0.00000000000000E+00
      0.00000000000000E+00   0.00000000000000E+00  -1.02133849987796E-03  -4.53771407586325E-28  -1.02133849987796E-03
     -6.33483125701297E-17   7.50000000000000E-01   7.50000000000000E-01   0.00000000000000E+00   0.00000000000000E+00
      1.02133849998369E-03   6.77206094116899E-30   1.02133849998369E-03   2.12171462797534E-16
      6.50000000000000E-01
      4.87500000000000E-01   4.87500000000000E-01   0.00000000000000E+00   0.00000000000000E+00   0.00000000000000E+00
      0.00000000000000E+00   0.00000000000000E+00  -1.15872210547607E-17   0.00000000000000E+00   0.00000000000000E+00
      0.00000000000000E+00   0.00000000000000E+00  -1.08750707507367E-03  -6.63791330562350E-28  -1.08750707507367E-03
     -6.75300143561648E-17   7.50000000000000E-01   7.50000000000000E-01   0.00000000000000E+00   0.00000000000000E+00
      1.08750707516679E-03   4.25500686567117E-30   1.08750707516679E-03   2.07852235713758E-16
      6.66666666666667E-01
      5.00000000000000E-01   5.00000000000000E-01   0.00000000000000E+00   0.00000000000000E+00   0.00000000000000E+00
      0.00000000000000E+00   0.00000000000000E+00   4.70714109881346E-18   0.00000000000000E+00   0.00000000000000E+00
      0.00000000000000E+00   0.00000000000000E+00  -1.15462001781659E-03  -7.37550892440570E-28  -1.15462001781659E-03
     -7.17046635499947E-17   7.50000000000000E-01   7.50000000000000E-01   0.00000000000000E+00   0.00000000000000E+00
      1.15462001789951E-03   2.52113860296069E-30   1.15462001789951E-03   2.03527278954195E-16
      6.83333333333334E-01
      5.12500000000000E-01   5.12500000000000E-01   0.00000000000000E+00   0.00000000000000E+00   0.00000000000000E+00
      0.00000000000000E+00   0.00000000000000E+00   2.11164046275026E-17   0.00000000000000E+00   0.00000000000000E+00
      0.00000000000000E+00   0.00000000000000E+00  -1.22259981664971E-03  -4.50554761255519E-28  -1.22259981664971E-03
     -7.58730699128489E-17   7.50000000000000E-01   7.50000000000000E-01   0.00000000000000E+00   0.00000000000000E+00
      1.22259981672333E-03   1.44398391051312E-30   1.22259981672333E-03   1.99196513374817E-16
      7.00000000000001E-01
      5.25000000000000E-01   5.25000000000000E-01   0.00000000000000E+00   0.00000000000000E+00   0.00000000000000E+00
      0.00000000000000E+00   0.00000000000000E+00   3.76340174481032E-17   0.00000000000000E+00   0.00000000000000E+00
      0.00000000000000E+00   0.00000000000000E+00  -1.29137411419705E-03  -2.91896850294457E-28  -1.29137411419705E-03
     -8.00359904918671E-17   7.50000000000000E-01   7.50000000000000E-01   0.00000000000000E+00   0.00000000000000E+00
      1.29137411426267E-03   7.62473336876219E-31   1.29137411426267E-03   1.94859888061728E-16
      7.16666666666667E-01
      5.37500000000000E-01   5.37500000000000E-01   0.00000000000000E+00   0.00000000000000E+00   0.00000000000000E+00
      0.00000000000000E+00   0.00000000000000E+00   5.42540128847224E-17   0.00000000000000E+00   0.00000000000000E+00
      0.00000000000000E+00   0.00000000000000E+00  -1.36087467327997E-03  -1.18639139041617E-28  -1.36087467327997E-03
     -8.41941292750243E-17   7.50000000000000E-01   7.50000000000000E-01   0.00000000000000E+00   0.00000000000000E+00
      1.36087467333866E-03   3.03596263305971E-31   1.36087467333866E-03   1.90517421863960E-16
      7.33333333333334E-01
      5.50000000000000E-01   5.50000000000000E-01   0.00000000000000E+00   0.00000000000000E+00   0.00000000000000E+00
      0.00000000000000E+00   0.00000000000000E+00   7.09701961625428E-17   0.00000000000000E+00   0.00000000000000E+00
      0.00000000000000E+00   0.00000000000000E+00  -1.43103890548736E-03  -2.08361963437511E-28  -1.43103890548736E-03
     -8.83481431098587E-17   7.50000000000000E-01   7.50000000000000E-01   0.00000000000000E+00   0.00000000000000E+00
      1.43103890553994E-03   5.09077200801819E-32   1.43103890553994E-03   1.86168953274151E-16
      7.50000000000001E-01
      5.62500000000000E-01   5.62500000000000E-01   0.00000000000000E+00   0.00000000000000E+00   0.00000000000000E+00
      0.00000000000000E+00   0.00000000000000E+00   8.77772383711999E-17   0.00000000000000E+00   0.00000000000000E+00
      0.00000000000000E+00   0.00000000000000E+00  -1.50180702134331E-03  -7.76356487167148E-29  -1.50180702134331E-03
     -9.24986334900152E-17   7.50000000000000E-01   7.50000000000000E-01   0.00000000000000E+00   0.00000000000000E+00
      1.50180702139078E-03  -3.45897450719077E-32   1.50180702139078E-03   1.81814517633556E-16
      7.66666666666667E-01
      5.75000000000001E-01   5.75000000000001E-01   0.00000000000000E+00   0.00000000000000E+00   0.00000000000000E+00
      0.00000000000000E+00   0.00000000000000E+00   1.04670640799637E-16   0.00000000000000E+00   0.00000000000000E+00
      0.00000000000000E+00   0.00000000000000E+00  -1.57312226615726E-03  -5.30280546845935E-29  -1.57312226615726E-03
     -9.66461582756005E-17   7.50000000000000E-01   7.50000000000000E-01   0.00000000000000E+00   0.00000000000000E+00
      1.57312226620012E-03  -6.19950502325396E-32   1.57312226620012E-03   1.77454336618339E-16
      7.83333333333334E-01
      5.87500000000001E-01   5.87500000000001E-01   0.00000000000000E+00   0.00000000000000E+00   0.00000000000000E+00
      0.00000000000000E+00   0.00000000000000E+00   1.21644823577152E-16   0.00000000000000E+00   0.00000000000000E+00
      0.00000000000000E+00   0.00000000000000E+00  -1.64493400161337E-03  -2.76012965732316E-29  -1.64493400161337E-03
     -1.00791225687454E-16   7.50000000000000E-01   7.50000000000000E-01   0.00000000000000E+00   0.00000000000000E+00
      1.64493400165203E-03  -8.08102830141389E-32   1.64493400165203E-03   1.73088170781563E-16
      8.00000000000001E-01
      6.00000000000001E-01   6.00000000000001E-01   0.00000000000000E+00   0.00000000000000E+00   0.00000000000000E+00
      0.00000000000000E+00   0.00000000000000E+00   1.38695808579972E-16   0.00000000000000E+00   0.00000000000000E+00