DF-ISE text

Info {
  version   = 1.0
  type      = xyplot
  datasets  = [
    "time"
    "gate OuterVoltage" "gate InnerVoltage" "gate QuasiFermiPotential" "gate DisplacementCurrent" "gate eCurrent"
    "gate hCurrent" "gate TotalCurrent" "gate Charge" "source OuterVoltage" "source InnerVoltage"
    "source QuasiFermiPotential" "source DisplacementCurrent" "source eCurrent" "source hCurrent" "source TotalCurrent"
    "source Charge" "drain OuterVoltage" "drain InnerVoltage" "drain QuasiFermiPotential" "drain DisplacementCurrent"
    "drain eCurrent" "drain hCurrent" "drain TotalCurrent" "drain Charge" ]
  functions = [
    Time
    OuterVoltage InnerVoltage QuasiFermiPotential DisplacementCurrent eCurrent
    hCurrent TotalCurrent Charge OuterVoltage InnerVoltage
    QuasiFermiPotential DisplacementCurrent eCurrent hCurrent TotalCurrent
    Charge OuterVoltage InnerVoltage QuasiFermiPotential DisplacementCurrent
    eCurrent hCurrent TotalCurrent Charge ]
}

Data {
      0.00000000000000E+00
      0.00000000000000E+00   0.00000000000000E+00   0.00000000000000E+00   0.00000000000000E+00   0.00000000000000E+00
      0.00000000000000E+00   0.00000000000000E+00  -4.98669134391301E-16   0.00000000000000E+00   0.00000000000000E+00
      0.00000000000000E+00   0.00000000000000E+00  -7.01208221077404E-08  -5.35763272039583E-26  -7.01208221077404E-08
      1.08746248288494E-16   8.00000000000000E-01   8.00000000000000E-01   0.00000000000000E+00   0.00000000000000E+00
      7.01208221077476E-08   2.28428485892425E-22   7.01208221077478E-08   3.91137785093945E-16
      1.66666666666667E-02
      1.33333333333333E-02   1.33333333333333E-02   0.00000000000000E+00   0.00000000000000E+00   0.00000000000000E+00
      0.00000000000000E+00   0.00000000000000E+00  -4.89185786359161E-16   0.00000000000000E+00   0.00000000000000E+00
      0.00000000000000E+00   0.00000000000000E+00  -1.10625347729918E-07   8.18826552604512E-20  -1.10625347729836E-07
      1.03769498427023E-16   8.00000000000000E-01   8.00000000000000E-01   0.00000000000000E+00   0.00000000000000E+00
      1.10625672400277E-07   1.28078370724662E-18   1.10625672401557E-07   3.86649055551971E-16
      3.33333333333333E-02
      2.66666666666667E-02   2.66666666666667E-02   0.00000000000000E+00   0.00000000000000E+00   0.00000000000000E+00
      0.00000000000000E+00   0.00000000000000E+00  -4.79674697294667E-16   0.00000000000000E+00   0.00000000000000E+00
      0.00000000000000E+00   0.00000000000000E+00  -1.74263896143863E-07   4.91528657502794E-20  -1.74263896143814E-07
      9.87765380688436E-17   8.00000000000000E-01   8.00000000000000E-01   0.00000000000000E+00   0.00000000000000E+00
      1.74265590517179E-07   4.56825781857683E-19   1.74265590517636E-07   3.82155558746102E-16
      5.00000000000000E-02
      4.00000000000000E-02   4.00000000000000E-02   0.00000000000000E+00   0.00000000000000E+00   0.00000000000000E+00
      0.00000000000000E+00   0.00000000000000E+00  -4.70133021481215E-16   0.00000000000000E+00   0.00000000000000E+00
      0.00000000000000E+00   0.00000000000000E+00  -2.74037126610706E-07  -5.93752262962905E-23  -2.74037126610706E-07
      9.37672234490131E-17   8.00000000000000E-01   8.00000000000000E-01   0.00000000000000E+00   0.00000000000000E+00
      2.74037132935927E-07  -1.97451535802723E-21   2.74037132935925E-07   3.77657291947831E-16
      6.66666666666667E-02
      5.33333333333333E-02   5.33333333333333E-02   0.00000000000000E+00   0.00000000000000E+00   0.00000000000000E+00
      0.00000000000000E+00   0.00000000000000E+00  -4.60557006892976E-16   0.00000000000000E+00   0.00000000000000E+00
      0.00000000000000E+00   0.00000000000000E+00  -4.30044940848098E-07   7.15547274695889E-23  -4.30044940848098E-07
      8.87416093481659E-17   8.00000000000000E-01   8.00000000000000E-01   0.00000000000000E+00   0.00000000000000E+00
      4.30044945344301E-07   1.34763208654779E-21   4.30044945344302E-07   3.73154267730214E-16
      8.33333333333333E-02
      6.66666666666667E-02   6.66666666666667E-02   0.00000000000000E+00   0.00000000000000E+00   0.00000000000000E+00
      0.00000000000000E+00   0.00000000000000E+00  -4.50941620131711E-16   0.00000000000000E+00   0.00000000000000E+00
      0.00000000000000E+00   0.00000000000000E+00  -6.73205373557227E-07   6.85097282718860E-23  -6.73205373557226E-07
      8.37000340648163E-17   8.00000000000000E-01   8.00000000000000E-01   0.00000000000000E+00   0.00000000000000E+00
      6.73205378148157E-07   1.80699121321687E-21   6.73205378148159E-07   3.68646521509674E-16
      1.00000000000000E-01
      8.00000000000000E-02   8.00000000000000E-02   0.00000000000000E+00   0.00000000000000E+00   0.00000000000000E+00
      0.00000000000000E+00   0.00000000000000E+00  -4.41280022741964E-16   0.00000000000000E+00   0.00000000000000E+00
      0.00000000000000E+00   0.00000000000000E+00  -1.05069353511657E-06   4.75511057145367E-23  -1.05069353511657E-06
      7.86432317716362E-17   8.00000000000000E-01   8.00000000000000E-01   0.00000000000000E+00   0.00000000000000E+00
      1.05069353946573E-06   2.47580723694667E-21   1.05069353946574E-06   3.64134122339149E-16
      1.16666666666667E-01
      9.33333333333333E-02   9.33333333333333E-02   0.00000000000000E+00   0.00000000000000E+00   0.00000000000000E+00
      0.00000000000000E+00   0.00000000000000E+00  -4.31562855052984E-16   0.00000000000000E+00   0.00000000000000E+00
      0.00000000000000E+00   0.00000000000000E+00  -1.63375761681833E-06   2.87746486279049E-23  -1.63375761681833E-06
      7.35724749858886E-17   8.00000000000000E-01   8.00000000000000E-01   0.00000000000000E+00   0.00000000000000E+00
      1.63375762169476E-06   3.40652329266822E-21   1.63375762169477E-06   3.59617187626085E-16
      1.33333333333333E-01
      1.06666666666667E-01   1.06666666666667E-01   0.00000000000000E+00   0.00000000000000E+00   0.00000000000000E+00
      0.00000000000000E+00   0.00000000000000E+00  -4.21777293923946E-16   0.00000000000000E+00   0.00000000000000E+00
      0.00000000000000E+00   0.00000000000000E+00  -2.52853270247063E-06   1.76089922358665E-23  -2.52853270247063E-06
      6.84897475624141E-17   8.00000000000000E-01   8.00000000000000E-01   0.00000000000000E+00   0.00000000000000E+00
      2.52853271120293E-06   4.38461074892136E-21   2.52853271120293E-06   3.55095902644841E-16
      1.50000000000000E-01
      1.20000000000000E-01   1.20000000000000E-01   0.00000000000000E+00   0.00000000000000E+00   0.00000000000000E+00
      0.00000000000000E+00   0.00000000000000E+00  -4.11905885248810E-16   0.00000000000000E+00   0.00000000000000E+00
      0.00000000000000E+00   0.00000000000000E+00  -3.89022423866184E-06   1.04492194957762E-23  -3.89022423866184E-06
      6.33979395512233E-17   8.00000000000000E-01   8.00000000000000E-01   0.00000000000000E+00   0.00000000000000E+00
      3.89022426763724E-06   4.55035130086556E-21   3.89022426763725E-06   3.50570545248203E-16
      1.66666666666667E-01
      1.33333333333333E-01   1.33333333333333E-01   0.00000000000000E+00   0.00000000000000E+00   0.00000000000000E+00
      0.00000000000000E+00   0.00000000000000E+00  -4.01925234849532E-16   0.00000000000000E+00   0.00000000000000E+00
      0.00000000000000E+00   0.00000000000000E+00  -5.94022515416557E-06   2.69384247468727E-24  -5.94022515416557E-06
      5.83010394745637E-17   8.00000000000000E-01   8.00000000000000E-01   0.00000000000000E+00   0.00000000000000E+00
      5.94022526122250E-06   2.59113219491134E-21   5.94022526122250E-06   3.46041515285901E-16
      1.83333333333333E-01
      1.46666666666667E-01   1.46666666666667E-01   0.00000000000000E+00   0.00000000000000E+00   0.00000000000000E+00
      0.00000000000000E+00   0.00000000000000E+00  -3.91804789840974E-16   0.00000000000000E+00   0.00000000000000E+00
      0.00000000000000E+00   0.00000000000000E+00  -8.98407203887004E-06  -4.79278241573411E-25  -8.98407203887004E-06
      5.32042757811444E-17   8.00000000000000E-01   8.00000000000000E-01   0.00000000000000E+00   0.00000000000000E+00
      8.98407239124510E-06   3.55745500569167E-22   8.98407239124510E-06   3.41509365628520E-16
      2.00000000000000E-01
      1.60000000000000E-01   1.60000000000000E-01   0.00000000000000E+00   0.00000000000000E+00   0.00000000000000E+00
      0.00000000000000E+00   0.00000000000000E+00  -3.81506140805406E-16   0.00000000000000E+00   0.00000000000000E+00
      0.00000000000000E+00   0.00000000000000E+00  -1.34255974248878E-05   3.41236297522469E-24  -1.34255974248878E-05
      4.81141328281281E-17   8.00000000000000E-01   8.00000000000000E-01   0.00000000000000E+00   0.00000000000000E+00
      1.34255984201711E-05   1.85186343720716E-22   1.34255984201711E-05   3.36974822095662E-16
      2.16666666666667E-01
      1.73333333333333E-01   1.73333333333333E-01   0.00000000000000E+00   0.00000000000000E+00   0.00000000000000E+00
      0.00000000000000E+00   0.00000000000000E+00  -3.70983433790713E-16   0.00000000000000E+00   0.00000000000000E+00
      0.00000000000000E+00   0.00000000000000E+00  -1.97700756944527E-05  -8.88300603583671E-25  -1.97700756944527E-05
      4.30381546774705E-17   8.00000000000000E-01   8.00000000000000E-01   0.00000000000000E+00   0.00000000000000E+00
      1.97700780845912E-05   3.52843530679960E-23   1.97700780845912E-05   3.32438767065438E-16
      2.33333333333333E-01
      1.86666666666667E-01   1.86666666666667E-01   0.00000000000000E+00   0.00000000000000E+00   0.00000000000000E+00
      0.00000000000000E+00   0.00000000000000E+00  -3.60185417961612E-16   0.00000000000000E+00   0.00000000000000E+00
      0.00000000000000E+00   0.00000000000000E+00  -2.86090544008539E-05   3.60748542971656E-24  -2.86090544008539E-05
      3.79844820202850E-17   8.00000000000000E-01   8.00000000000000E-01   0.00000000000000E+00   0.00000000000000E+00
      2.86090592582206E-05   7.35206230380290E-26   2.86090592582206E-05   3.27902180230283E-16
      2.50000000000000E-01
      2.00000000000000E-01   2.00000000000000E-01   0.00000000000000E+00   0.00000000000000E+00   0.00000000000000E+00
      0.00000000000000E+00   0.00000000000000E+00  -3.49059078438163E-16   0.00000000000000E+00   0.00000000000000E+00
      0.00000000000000E+00   0.00000000000000E+00  -4.05856133514714E-05   1.10484823409454E-23  -4.05856133514714E-05
      3.29611690633987E-17   8.00000000000000E-01   8.00000000000000E-01   0.00000000000000E+00   0.00000000000000E+00
      4.05856216640096E-05   2.27551872787906E-24   4.05856216640096E-05   3.23366054403903E-16
      2.66666666666667E-01
      2.13333333333333E-01   2.13333333333333E-01   0.00000000000000E+00   0.00000000000000E+00   0.00000000000000E+00
      0.00000000000000E+00   0.00000000000000E+00  -3.37553506355845E-16   0.00000000000000E+00   0.00000000000000E+00
      0.00000000000000E+00   0.00000000000000E+00  -5.63545743207789E-05   1.40064823004248E-23  -5.63545743207789E-05
      2.79754957124042E-17   8.00000000000000E-01   8.00000000000000E-01   0.00000000000000E+00   0.00000000000000E+00
      5.63545863700007E-05   1.37803262467827E-24   5.63545863700007E-05   3.18831307932477E-16
      2.83333333333333E-01
      2.26666666666667E-01   2.26666666666667E-01   0.00000000000000E+00   0.00000000000000E+00   0.00000000000000E+00
      0.00000000000000E+00   0.00000000000000E+00  -3.25619839277287E-16   0.00000000000000E+00   0.00000000000000E+00
      0.00000000000000E+00   0.00000000000000E+00  -7.65908106677694E-05   1.29596664026267E-23  -7.65908106677694E-05
      2.30337747915005E-17   8.00000000000000E-01   8.00000000000000E-01   0.00000000000000E+00   0.00000000000000E+00
      7.65908260138346E-05   6.56679571536681E-25   7.65908260138346E-05   3.14298771680950E-16
      3.00000000000000E-01
      2.40000000000000E-01   2.40000000000000E-01   0.00000000000000E+00   0.00000000000000E+00   0.00000000000000E+00
      0.00000000000000E+00   0.00000000000000E+00  -3.13218001415715E-16   0.00000000000000E+00   0.00000000000000E+00
      0.00000000000000E+00   0.00000000000000E+00  -1.01892593002832E-04   1.21840012591415E-23  -1.01892593002832E-04
      1.81415941618976E-17   8.00000000000000E-01   8.00000000000000E-01   0.00000000000000E+00   0.00000000000000E+00
      1.01892616155266E-04   8.60706175871533E-25   1.01892616155266E-04   3.09768997679405E-16
      3.16666666666667E-01
      2.53333333333333E-01   2.53333333333333E-01   0.00000000000000E+00   0.00000000000000E+00   0.00000000000000E+00
      0.00000000000000E+00   0.00000000000000E+00  -3.00596688360844E-16   0.00000000000000E+00   0.00000000000000E+00
      0.00000000000000E+00   0.00000000000000E+00  -1.29135818868242E-04   2.11537406661054E-23  -1.29135818868242E-04
      1.32707919989956E-17   8.00000000000000E-01   8.00000000000000E-01   0.00000000000000E+00   0.00000000000000E+00
      1.29135819606746E-04  -1.48909779045536E-24   1.29135819606746E-04   3.05236827141526E-16
      3.33333333333333E-01
      2.66666666666667E-01   2.66666666666667E-01   0.00000000000000E+00   0.00000000000000E+00   0.00000000000000E+00
      0.00000000000000E+00   0.00000000000000E+00  -2.87582030438298E-16   0.00000000000000E+00   0.00000000000000E+00
      0.00000000000000E+00   0.00000000000000E+00  -1.60294482345198E-04   2.16278956386478E-24  -1.60294482345198E-04
      8.44348372008294E-18   8.00000000000000E-01   8.00000000000000E-01   0.00000000000000E+00   0.00000000000000E+00
      1.60294497498724E-04   2.84163583390373E-25   1.60294497498724E-04   3.00705453173213E-16
      3.50000000000000E-01
      2.80000000000000E-01   2.80000000000000E-01   0.00000000000000E+00   0.00000000000000E+00   0.00000000000000E+00
      0.00000000000000E+00   0.00000000000000E+00  -2.74179916745933E-16   0.00000000000000E+00   0.00000000000000E+00
      0.00000000000000E+00   0.00000000000000E+00  -1.95364295122144E-04   6.90895302667551E-25  -1.95364295122144E-04
      3.65742164332254E-18   8.00000000000000E-01   8.00000000000000E-01   0.00000000000000E+00   0.00000000000000E+00
      1.95364303462339E-04   1.62323604942965E-25   1.95364303462339E-04   2.96174605397939E-16
      3.66666666666667E-01
      2.93333333333333E-01   2.93333333333333E-01   0.00000000000000E+00   0.00000000000000E+00   0.00000000000000E+00
      0.00000000000000E+00   0.00000000000000E+00  -2.60409308490340E-16   0.00000000000000E+00   0.00000000000000E+00
      0.00000000000000E+00   0.00000000000000E+00  -2.34161591983190E-04  -1.28141270816216E-24  -2.34161591983190E-04
     -1.09067067068147E-18   8.00000000000000E-01   8.00000000000000E-01   0.00000000000000E+00   0.00000000000000E+00
      2.34161596859923E-04   8.77914712188989E-26   2.34161596859923E-04   2.91643732657889E-16
      3.83333333333333E-01
      3.06666666666667E-01   3.06666666666667E-01   0.00000000000000E+00   0.00000000000000E+00   0.00000000000000E+00
      0.00000000000000E+00   0.00000000000000E+00  -2.46291667926249E-16   0.00000000000000E+00   0.00000000000000E+00
      0.00000000000000E+00   0.00000000000000E+00  -2.76455293902539E-04  -1.38806373457088E-24  -2.76455293902539E-04
     -5.80392754665303E-18   8.00000000000000E-01   8.00000000000000E-01   0.00000000000000E+00   0.00000000000000E+00
      2.76455297087830E-04   4.58107160345446E-26   2.76455297087830E-04   2.87112220698360E-16
      4.00000000000000E-01
      3.20000000000000E-01   3.20000000000000E-01   0.00000000000000E+00   0.00000000000000E+00   0.00000000000000E+00
      0.00000000000000E+00   0.00000000000000E+00  -2.31848486539677E-16   0.00000000000000E+00   0.00000000000000E+00
      0.00000000000000E+00   0.00000000000000E+00  -3.22000851904067E-04  -2.16214346341000E-24  -3.22000851904067E-04
     -1.04853753445336E-17   8.00000000000000E-01   8.00000000000000E-01   0.00000000000000E+00   0.00000000000000E+00
      3.22000854082131E-04   2.10521929180103E-26   3.22000854082131E-04   2.82579449969225E-16
      4.16666666666667E-01
      3.33333333333333E-01   3.33333333333333E-01   0.00000000000000E+00   0.00000000000000E+00   0.00000000000000E+00
      0.00000000000000E+00   0.00000000000000E+00  -2.17100495496186E-16   0.00000000000000E+00   0.00000000000000E+00
      0.00000000000000E+00   0.00000000000000E+00  -3.70558125794553E-04  -1.04784646836581E-24  -3.70558125794553E-04
     -1.51378227596650E-17   8.00000000000000E-01   8.00000000000000E-01   0.00000000000000E+00   0.00000000000000E+00
      3.70558127351335E-04   7.99606585786655E-27   3.70558127351335E-04   2.78044815360643E-16
      4.33333333333333E-01
      3.46666666666667E-01   3.46666666666667E-01   0.00000000000000E+00   0.00000000000000E+00   0.00000000000000E+00
      0.00000000000000E+00   0.00000000000000E+00  -2.02067513118581E-16   0.00000000000000E+00   0.00000000000000E+00
      0.00000000000000E+00   0.00000000000000E+00  -4.21899432728203E-04  -3.62496973427024E-24  -4.21899432728203E-04
     -1.97638454627176E-17   8.00000000000000E-01   8.00000000000000E-01   0.00000000000000E+00   0.00000000000000E+00
      4.21899433869889E-04   2.23062002260501E-27   4.21899433869889E-04   2.73507718069009E-16
      4.50000000000000E-01
      3.60000000000000E-01   3.60000000000000E-01   0.00000000000000E+00   0.00000000000000E+00   0.00000000000000E+00
      0.00000000000000E+00   0.00000000000000E+00  -1.86767348883667E-16   0.00000000000000E+00   0.00000000000000E+00
      0.00000000000000E+00   0.00000000000000E+00  -4.75810151872228E-04   4.53172861654057E-26  -4.75810151872228E-04
     -2.43658183888346E-17   8.00000000000000E-01   8.00000000000000E-01   0.00000000000000E+00   0.00000000000000E+00
      4.75810152745183E-04   4.62040908644747E-28   4.75810152745183E-04   2.68967629088479E-16
      4.66666666666667E-01
      3.73333333333333E-01   3.73333333333333E-01   0.00000000000000E+00   0.00000000000000E+00   0.00000000000000E+00
      0.00000000000000E+00   0.00000000000000E+00  -1.71217023673075E-16   0.00000000000000E+00   0.00000000000000E+00
      0.00000000000000E+00   0.00000000000000E+00  -5.32092920717701E-04  -2.67290709047849E-25  -5.32092920717701E-04
     -2.89459022586038E-17   8.00000000000000E-01   8.00000000000000E-01   0.00000000000000E+00   0.00000000000000E+00
      5.32092921390643E-04   2.15933390473495E-28   5.32092921390643E-04   2.64424027845019E-16
      4.83333333333333E-01
      3.86666666666667E-01   3.86666666666667E-01   0.00000000000000E+00   0.00000000000000E+00   0.00000000000000E+00
      0.00000000000000E+00   0.00000000000000E+00  -1.55432005713745E-16   0.00000000000000E+00   0.00000000000000E+00
      0.00000000000000E+00   0.00000000000000E+00  -5.90563887849748E-04  -3.85553003751150E-25  -5.90563887849748E-04
     -3.35060721644077E-17   8.00000000000000E-01   8.00000000000000E-01   0.00000000000000E+00   0.00000000000000E+00
      5.90563888384309E-04   2.67599477711764E-28   5.90563888384309E-04   2.59876453106991E-16
      5.00000000000000E-01
      4.00000000000000E-01   4.00000000000000E-01   0.00000000000000E+00   0.00000000000000E+00   0.00000000000000E+00
      0.00000000000000E+00   0.00000000000000E+00  -1.39427020498302E-16   0.00000000000000E+00   0.00000000000000E+00
      0.00000000000000E+00   0.00000000000000E+00  -6.51054536357118E-04  -2.03882244818963E-25  -6.51054536357118E-04
     -3.80481519673109E-17   8.00000000000000E-01   8.00000000000000E-01   0.00000000000000E+00   0.00000000000000E+00
      6.51054536792330E-04   2.85379384398171E-28   6.51054536792330E-04   2.55324445031432E-16
      5.16666666666667E-01
      4.13333333333333E-01   4.13333333333333E-01   0.00000000000000E+00   0.00000000000000E+00   0.00000000000000E+00
      0.00000000000000E+00   0.00000000000000E+00  -1.23215394592394E-16   0.00000000000000E+00   0.00000000000000E+00
      0.00000000000000E+00   0.00000000000000E+00  -7.13406950807532E-04  -5.76619974832738E-26  -7.13406950807532E-04
     -4.25738065957097E-17   8.00000000000000E-01   8.00000000000000E-01   0.00000000000000E+00   0.00000000000000E+00
      7.13406951165518E-04   2.49637288036568E-28   7.13406951165518E-04   2.50767636606712E-16
      5.33333333333333E-01
      4.26666666666667E-01   4.26666666666667E-01   0.00000000000000E+00   0.00000000000000E+00   0.00000000000000E+00
      0.00000000000000E+00   0.00000000000000E+00  -1.06809750889411E-16   0.00000000000000E+00   0.00000000000000E+00
      0.00000000000000E+00   0.00000000000000E+00  -7.77475919316872E-04   3.29900271169947E-26  -7.77475919316872E-04
     -4.70846031384999E-17   8.00000000000000E-01   8.00000000000000E-01   0.00000000000000E+00   0.00000000000000E+00
      7.77475919618654E-04   1.86718211531972E-28   7.77475919618654E-04   2.46205671872275E-16
      5.50000000000000E-01
      4.40000000000000E-01   4.40000000000000E-01   0.00000000000000E+00   0.00000000000000E+00   0.00000000000000E+00
      0.00000000000000E+00   0.00000000000000E+00  -9.02219876695898E-17   0.00000000000000E+00   0.00000000000000E+00
      0.00000000000000E+00   0.00000000000000E+00  -8.43125930012915E-04   1.17813441748681E-26  -8.43125930012915E-04
     -5.15819829267575E-17   8.00000000000000E-01   8.00000000000000E-01   0.00000000000000E+00   0.00000000000000E+00
      8.43125930269001E-04   1.31205865375863E-28   8.43125930269001E-04   2.41638231010470E-16
      5.66666666666667E-01
      4.53333333333333E-01   4.53333333333333E-01   0.00000000000000E+00   0.00000000000000E+00   0.00000000000000E+00
      0.00000000000000E+00   0.00000000000000E+00  -7.34631764835353E-17   0.00000000000000E+00   0.00000000000000E+00
      0.00000000000000E+00   0.00000000000000E+00  -9.10230963951492E-04   4.57559733532534E-27  -9.10230963951492E-04
     -5.60673022679254E-17   8.00000000000000E-01   8.00000000000000E-01   0.00000000000000E+00   0.00000000000000E+00
      9.10230964171730E-04   8.75311137277788E-29   9.10230964171730E-04   2.37065037981497E-16
      5.83333333333333E-01
      4.66666666666667E-01   4.66666666666667E-01   0.00000000000000E+00   0.00000000000000E+00   0.00000000000000E+00
      0.00000000000000E+00   0.00000000000000E+00  -5.65437960093981E-17   0.00000000000000E+00   0.00000000000000E+00
      0.00000000000000E+00   0.00000000000000E+00  -9.78672943163662E-04   1.78454172623363E-27  -9.78672943163662E-04
     -6.05418105229392E-17   8.00000000000000E-01   8.00000000000000E-01   0.00000000000000E+00   0.00000000000000E+00
      9.78672943354425E-04   5.60628656285662E-29   9.78672943354425E-04   2.32485853382981E-16
      6.00000000000000E-01
      4.80000000000000E-01   4.80000000000000E-01   0.00000000000000E+00   0.00000000000000E+00   0.00000000000000E+00
      0.00000000000000E+00   0.00000000000000E+00  -3.94736408522276E-17   0.00000000000000E+00   0.00000000000000E+00
      0.00000000000000E+00   0.00000000000000E+00  -1.04834152206763E-03   2.09006092233461E-28  -1.04834152206763E-03
     -6.50066764860358E-17   8.00000000000000E-01   8.00000000000000E-01   0.00000000000000E+00   0.00000000000000E+00
      1.04834152223400E-03   3.59990217651665E-29   1.04834152223400E-03   2.27900482037836E-16
      6.16666666666667E-01
      4.93333333333334E-01   4.93333333333334E-01   0.00000000000000E+00   0.00000000000000E+00   0.00000000000000E+00
      0.00000000000000E+00   0.00000000000000E+00  -2.22618613682903E-17   0.00000000000000E+00   0.00000000000000E+00
      0.00000000000000E+00   0.00000000000000E+00  -1.11913389146669E-03  -3.68320423095074E-28  -1.11913389146669E-03
     -6.94629997837210E-17   8.00000000000000E-01   8.00000000000000E-01   0.00000000000000E+00   0.00000000000000E+00
      1.11913389161298E-03   2.28416843912760E-29   1.11913389161298E-03   2.23308767614164E-16
      6.33333333333334E-01
      5.06666666666667E-01   5.06666666666667E-01   0.00000000000000E+00   0.00000000000000E+00   0.00000000000000E+00
      0.00000000000000E+00   0.00000000000000E+00  -4.91713691485253E-18   0.00000000000000E+00   0.00000000000000E+00
      0.00000000000000E+00   0.00000000000000E+00  -1.19095403979343E-03  -7.10893340505389E-28  -1.19095403979343E-03
     -7.39118003483538E-17   8.00000000000000E-01   8.00000000000000E-01   0.00000000000000E+00   0.00000000000000E+00
      1.19095403992230E-03   1.41423025854345E-29   1.19095403992230E-03   2.18710580892778E-16
      6.50000000000000E-01
      5.20000000000000E-01   5.20000000000000E-01   0.00000000000000E+00   0.00000000000000E+00   0.00000000000000E+00
      0.00000000000000E+00   0.00000000000000E+00   1.25525021254730E-17   0.00000000000000E+00   0.00000000000000E+00
      0.00000000000000E+00   0.00000000000000E+00  -1.26371192990998E-03  -4.61673511973447E-28  -1.26371192990998E-03
     -7.83540230541790E-17   8.00000000000000E-01   8.00000000000000E-01   0.00000000000000E+00   0.00000000000000E+00
      1.26371193002414E-03   8.76705273299568E-30   1.26371193002414E-03   2.14105857764162E-16
      6.66666666666667E-01
      5.33333333333334E-01   5.33333333333334E-01   0.00000000000000E+00   0.00000000000000E+00   0.00000000000000E+00
      0.00000000000000E+00   0.00000000000000E+00   3.01393751930031E-17   0.00000000000000E+00   0.00000000000000E+00
      0.00000000000000E+00   0.00000000000000E+00  -1.33732403728393E-03  -3.74171475614639E-28  -1.33732403728393E-03
     -8.27905493986513E-17   8.00000000000000E-01   8.00000000000000E-01   0.00000000000000E+00   0.00000000000000E+00
      1.33732403738501E-03   5.06825046295245E-30   1.33732403738501E-03   2.09494504606094E-16
      6.83333333333334E-01
      5.46666666666667E-01   5.46666666666667E-01   0.00000000000000E+00   0.00000000000000E+00   0.00000000000000E+00
      0.00000000000000E+00   0.00000000000000E+00   4.78362045814327E-17   0.00000000000000E+00   0.00000000000000E+00
      0.00000000000000E+00   0.00000000000000E+00  -1.41171264137305E-03   1.55915060057042E-27  -1.41171264137305E-03
     -8.72221934031351E-17   8.00000000000000E-01   8.00000000000000E-01   0.00000000000000E+00   0.00000000000000E+00
      1.41171264146331E-03   2.97209474156816E-30   1.41171264146331E-03   2.04876436043778E-16
      7.00000000000001E-01
      5.60000000000000E-01   5.60000000000000E-01   0.00000000000000E+00   0.00000000000000E+00   0.00000000000000E+00
      0.00000000000000E+00   0.00000000000000E+00   6.56364409104138E-17   0.00000000000000E+00   0.00000000000000E+00
      0.00000000000000E+00   0.00000000000000E+00  -1.48680461483026E-03  -2.41618171262165E-28  -1.48680461483026E-03
     -9.16497012367807E-17   8.00000000000000E-01   8.00000000000000E-01   0.00000000000000E+00   0.00000000000000E+00
      1.48680461491104E-03   1.81157976910362E-30   1.48680461491104E-03   2.00251669794432E-16
      7.16666666666667E-01
      5.73333333333334E-01   5.73333333333334E-01   0.00000000000000E+00   0.00000000000000E+00   0.00000000000000E+00
      0.00000000000000E+00   0.00000000000000E+00   8.35343535161527E-17   0.00000000000000E+00   0.00000000000000E+00
      0.00000000000000E+00   0.00000000000000E+00  -1.56253116130757E-03  -1.66941998950540E-28  -1.56253116130757E-03
     -9.60737594349856E-17   8.00000000000000E-01   8.00000000000000E-01   0.00000000000000E+00   0.00000000000000E+00
      1.56253116137993E-03   1.04157699855426E-30   1.56253116137993E-03   1.95620365578372E-16
      7.33333333333334E-01
      5.86666666666667E-01   5.86666666666667E-01   0.00000000000000E+00   0.00000000000000E+00   0.00000000000000E+00
      0.00000000000000E+00   0.00000000000000E+00   1.01523479204117E-16   0.00000000000000E+00   0.00000000000000E+00
      0.00000000000000E+00   0.00000000000000E+00  -1.63883038539499E-03  -1.08015302533340E-28  -1.63883038539499E-03
     -1.00494994458422E-16   8.00000000000000E-01   8.00000000000000E-01   0.00000000000000E+00   0.00000000000000E+00
      1.63883038545998E-03   5.24106131421335E-31   1.63883038545998E-03   1.90982359358172E-16
      7.50000000000001E-01
      6.00000000000001E-01   6.00000000000001E-01   0.00000000000000E+00   0.00000000000000E+00   0.00000000000000E+00
      0.00000000000000E+00   0.00000000000000E+00   1.19598670779675E-16   0.00000000000000E+00   0.00000000000000E+00
      0.00000000000000E+00   0.00000000000000E+00  -1.71564312824655E-03  -6.60302443242150E-29  -1.71564312824655E-03
     -1.04913982176040E-16   8.00000000000000E-01   8.00000000000000E-01   0.00000000000000E+00   0.00000000000000E+00
      1.71564312830495E-03   2.80265364465040E-31   1.71564312830495E-03   1.86337748910841E-16
      7.66666666666667E-01
      6.13333333333334E-01   6.13333333333334E-01   0.00000000000000E+00   0.00000000000000E+00   0.00000000000000E+00
      0.00000000000000E+00   0.00000000000000E+00   1.37755418090416E-16   0.00000000000000E+00   0.00000000000000E+00
      0.00000000000000E+00   0.00000000000000E+00  -1.79291403414166E-03  -4.70223340691862E-29  -1.79291403414166E-03
     -1.09331246491928E-16   8.00000000000000E-01   8.00000000000000E-01   0.00000000000000E+00   0.00000000000000E+00
      1.79291403419421E-03   1.59480427741885E-31   1.79291403419421E-03   1.81686839228810E-16
      7.83333333333334E-01
      6.26666666666667E-01   6.26666666666667E-01   0.00000000000000E+00   0.00000000000000E+00   0.00000000000000E+00
      0.00000000000000E+00   0.00000000000000E+00   1.55988420146706E-16   0.00000000000000E+00   0.00000000000000E+00
      0.00000000000000E+00   0.00000000000000E+00  -1.87059385896937E-03  -2.26279097356564E-29  -1.87059385896937E-03
     -1.13747266849975E-16   8.00000000000000E-01   8.00000000000000E-01   0.00000000000000E+00   0.00000000000000E+00
      1.87059385901637E-03   3.71553612365321E-32   1.87059385901637E-03   1.77029431581663E-16
      8.00000000000001E-01
      6.40000000000001E-01   6.40000000000001E-01   0.00000000000000E+00   0.00000000000000E+00   0.00000000000000E+00
      0.00000000000000E+00   0.00000000000000E+00   1.74293726902101E-16   0.00000000000000E+00   0.00000000000000E+00