DF-ISE text

Info {
  version   = 1.0
  type      = xyplot
  datasets  = [
    "time"
    "gate OuterVoltage" "gate InnerVoltage" "gate QuasiFermiPotential" "gate DisplacementCurrent" "gate eCurrent"
    "gate hCurrent" "gate TotalCurrent" "gate Charge" "source OuterVoltage" "source InnerVoltage"
    "source QuasiFermiPotential" "source DisplacementCurrent" "source eCurrent" "source hCurrent" "source TotalCurrent"
    "source Charge" "drain OuterVoltage" "drain InnerVoltage" "drain QuasiFermiPotential" "drain DisplacementCurrent"
    "drain eCurrent" "drain hCurrent" "drain TotalCurrent" "drain Charge" ]
  functions = [
    Time
    OuterVoltage InnerVoltage QuasiFermiPotential DisplacementCurrent eCurrent
    hCurrent TotalCurrent Charge OuterVoltage InnerVoltage
    QuasiFermiPotential DisplacementCurrent eCurrent hCurrent TotalCurrent
    Charge OuterVoltage InnerVoltage QuasiFermiPotential DisplacementCurrent
    eCurrent hCurrent TotalCurrent Charge ]
}

Data {
      0.00000000000000E+00
      0.00000000000000E+00   0.00000000000000E+00   0.00000000000000E+00   0.00000000000000E+00   0.00000000000000E+00
      0.00000000000000E+00   0.00000000000000E+00   5.48679756520380E-16   0.00000000000000E+00   0.00000000000000E+00
      0.00000000000000E+00   0.00000000000000E+00   2.22841579639344E-08   1.08680268244049E-15   2.22841590507371E-08
     -1.16939238951889E-16  -9.00000000000000E-01  -9.00000000000000E-01   0.00000000000000E+00   0.00000000000000E+00
     -2.22841590891872E-08   5.84561293269617E-12  -2.22783134762545E-08  -4.33340222170018E-16
      1.66666666666667E-02
     -1.66666666666667E-03  -1.66666666666667E-03   0.00000000000000E+00   0.00000000000000E+00   0.00000000000000E+00
      0.00000000000000E+00   0.00000000000000E+00   5.47493330008265E-16   0.00000000000000E+00   0.00000000000000E+00
      0.00000000000000E+00   0.00000000000000E+00   2.35990961609024E-08   1.72181956409108E-15   2.35990978827220E-08
     -1.16318918792340E-16  -9.00000000000000E-01  -9.00000000000000E-01   0.00000000000000E+00   0.00000000000000E+00
     -2.35990969266123E-08   4.65923113711007E-12  -2.35944376954752E-08  -4.32781469290846E-16
      3.33333333333333E-02
     -3.33333333333333E-03  -3.33333333333333E-03   0.00000000000000E+00   0.00000000000000E+00   0.00000000000000E+00
      0.00000000000000E+00   0.00000000000000E+00   5.46306526073722E-16   0.00000000000000E+00   0.00000000000000E+00
      0.00000000000000E+00   0.00000000000000E+00   2.49910964128489E-08  -3.49438718511164E-15   2.49910929184617E-08
     -1.15698428761110E-16  -9.00000000000000E-01  -9.00000000000000E-01   0.00000000000000E+00   0.00000000000000E+00
     -2.49910962101473E-08  -1.55069184407479E-12  -2.49926469019914E-08  -4.32222642060842E-16
      5.00000000000000E-02
     -5.00000000000000E-03  -5.00000000000000E-03   0.00000000000000E+00   0.00000000000000E+00   0.00000000000000E+00
      0.00000000000000E+00   0.00000000000000E+00   5.45119339111991E-16   0.00000000000000E+00   0.00000000000000E+00
      0.00000000000000E+00   0.00000000000000E+00   2.64651419562936E-08  -7.32796827501433E-16   2.64651412234968E-08
     -1.15077769162738E-16  -9.00000000000000E-01  -9.00000000000000E-01   0.00000000000000E+00   0.00000000000000E+00
     -2.64651423159031E-08  -3.74765547989370E-12  -2.64688899713830E-08  -4.31663737838252E-16
      6.66666666666667E-02
     -6.66666666666667E-03  -6.66666666666667E-03   0.00000000000000E+00   0.00000000000000E+00   0.00000000000000E+00
      0.00000000000000E+00   0.00000000000000E+00   5.43931769526205E-16   0.00000000000000E+00   0.00000000000000E+00
      0.00000000000000E+00   0.00000000000000E+00   2.80257393213448E-08  -9.76536766293053E-14   2.80256416676681E-08
     -1.14456940348588E-16  -9.00000000000000E-01  -9.00000000000000E-01   0.00000000000000E+00   0.00000000000000E+00
     -2.80257522617571E-08   1.35303709326204E-11  -2.80122218908245E-08  -4.31104760731371E-16
      8.33333333333333E-02
     -8.33333333333333E-03  -8.33333333333333E-03   0.00000000000000E+00   0.00000000000000E+00   0.00000000000000E+00
      0.00000000000000E+00   0.00000000000000E+00   5.42743809877762E-16   0.00000000000000E+00   0.00000000000000E+00
      0.00000000000000E+00   0.00000000000000E+00   2.96779382643780E-08  -1.14300873609513E-13   2.96778239635044E-08
     -1.13835942656445E-16  -9.00000000000000E-01  -9.00000000000000E-01   0.00000000000000E+00   0.00000000000000E+00
     -2.96779397556449E-08   2.73197965562755E-11  -2.96506199590886E-08  -4.30545706220960E-16
      1.00000000000000E-01
     -1.00000000000000E-02  -1.00000000000000E-02   0.00000000000000E+00   0.00000000000000E+00   0.00000000000000E+00
      0.00000000000000E+00   0.00000000000000E+00   5.41555456455987E-16   0.00000000000000E+00   0.00000000000000E+00
      0.00000000000000E+00   0.00000000000000E+00   3.14269149277405E-08  -3.20107730030423E-14   3.14268829169675E-08
     -1.13214776475337E-16  -9.00000000000000E-01  -9.00000000000000E-01   0.00000000000000E+00   0.00000000000000E+00
     -3.14268804302257E-08   1.33507329484976E-11  -3.14135296972772E-08  -4.29986574116286E-16
      1.16666666666667E-01
     -1.16666666666667E-02  -1.16666666666667E-02   0.00000000000000E+00   0.00000000000000E+00   0.00000000000000E+00
      0.00000000000000E+00   0.00000000000000E+00   5.40366712512183E-16   0.00000000000000E+00   0.00000000000000E+00
      0.00000000000000E+00   0.00000000000000E+00   3.32783169356998E-08  -1.25009504650269E-13   3.32781919261952E-08
     -1.12593442173913E-16  -9.00000000000000E-01  -9.00000000000000E-01   0.00000000000000E+00   0.00000000000000E+00
     -3.32783110821454E-08   3.50559750540649E-11  -3.32432551070914E-08  -4.29427371088313E-16
      1.33333333333333E-01
     -1.33333333333333E-02  -1.33333333333333E-02   0.00000000000000E+00   0.00000000000000E+00   0.00000000000000E+00
      0.00000000000000E+00   0.00000000000000E+00   5.39177567827098E-16   0.00000000000000E+00   0.00000000000000E+00
      0.00000000000000E+00   0.00000000000000E+00   3.52382567920014E-08  -1.03777790566479E-13   3.52381530142109E-08
     -1.11971940212047E-16  -9.00000000000000E-01  -9.00000000000000E-01   0.00000000000000E+00   0.00000000000000E+00
     -3.52382698900047E-08   4.92976840882450E-11  -3.51889722059165E-08  -4.28868090616402E-16
      1.50000000000000E-01
     -1.50000000000000E-02  -1.50000000000000E-02   0.00000000000000E+00   0.00000000000000E+00   0.00000000000000E+00
      0.00000000000000E+00   0.00000000000000E+00   5.37988020470875E-16   0.00000000000000E+00   0.00000000000000E+00
      0.00000000000000E+00   0.00000000000000E+00   3.73131379322963E-08  -1.12835688391960E-13   3.73130250966079E-08
     -1.11350271002264E-16  -9.00000000000000E-01  -9.00000000000000E-01   0.00000000000000E+00   0.00000000000000E+00
     -3.73131438446635E-08   6.00670911053287E-11  -3.72530767535582E-08  -4.28308734024146E-16
      1.66666666666667E-01
     -1.66666666666667E-02  -1.66666666666667E-02   0.00000000000000E+00   0.00000000000000E+00   0.00000000000000E+00
      0.00000000000000E+00   0.00000000000000E+00   5.36798067009309E-16   0.00000000000000E+00   0.00000000000000E+00
      0.00000000000000E+00   0.00000000000000E+00   3.95096285623817E-08  -1.19101240371840E-13   3.95095094611414E-08
     -1.10728435012683E-16  -9.00000000000000E-01  -9.00000000000000E-01   0.00000000000000E+00   0.00000000000000E+00
     -3.95096297558052E-08   7.80805852018327E-11  -3.94315491706034E-08  -4.27749301577959E-16
      1.83333333333333E-01
     -1.83333333333333E-02  -1.83333333333333E-02   0.00000000000000E+00   0.00000000000000E+00   0.00000000000000E+00
      0.00000000000000E+00   0.00000000000000E+00   5.35607703597281E-16   0.00000000000000E+00   0.00000000000000E+00
      0.00000000000000E+00   0.00000000000000E+00   4.18347584698675E-08  -1.10175773309726E-13   4.18346482940942E-08
     -1.10106432744887E-16  -9.00000000000000E-01  -9.00000000000000E-01   0.00000000000000E+00   0.00000000000000E+00
     -4.18347682556447E-08   1.09490846583723E-10  -4.17252774090610E-08  -4.27189793282742E-16
      2.00000000000000E-01
     -2.00000000000000E-02  -2.00000000000000E-02   0.00000000000000E+00   0.00000000000000E+00   0.00000000000000E+00
      0.00000000000000E+00   0.00000000000000E+00   5.34416926439839E-16   0.00000000000000E+00   0.00000000000000E+00
      0.00000000000000E+00   0.00000000000000E+00   4.42959752390487E-08  -1.10804811170101E-13   4.42958644342375E-08
     -1.09484264718161E-16  -9.00000000000000E-01  -9.00000000000000E-01   0.00000000000000E+00   0.00000000000000E+00
     -4.42959850705532E-08   1.56389958470575E-10  -4.41395951120826E-08  -4.26630209189037E-16
      2.16666666666667E-01
     -2.16666666666667E-02  -2.16666666666667E-02   0.00000000000000E+00   0.00000000000000E+00   0.00000000000000E+00
      0.00000000000000E+00   0.00000000000000E+00   5.33225731666264E-16   0.00000000000000E+00   0.00000000000000E+00
      0.00000000000000E+00   0.00000000000000E+00   4.69011321382039E-08  -1.12354743297402E-13   4.69010197834606E-08
     -1.08861931470561E-16  -9.00000000000000E-01  -9.00000000000000E-01   0.00000000000000E+00   0.00000000000000E+00
     -4.69011410838706E-08   2.18970728471496E-10  -4.66821703553991E-08  -4.26070549306514E-16
      2.33333333333333E-01
     -2.33333333333333E-02  -2.33333333333333E-02   0.00000000000000E+00   0.00000000000000E+00   0.00000000000000E+00
      0.00000000000000E+00   0.00000000000000E+00   5.32034115062058E-16   0.00000000000000E+00   0.00000000000000E+00
      0.00000000000000E+00   0.00000000000000E+00   4.96585708405753E-08  -1.03965608563433E-13   4.96584668749668E-08
     -1.08239433583707E-16  -9.00000000000000E-01  -9.00000000000000E-01   0.00000000000000E+00   0.00000000000000E+00
     -4.96585882189561E-08   2.97041048138050E-10  -4.93615471708180E-08  -4.25510813523767E-16
      2.50000000000000E-01
     -2.50000000000000E-02  -2.50000000000000E-02   0.00000000000000E+00   0.00000000000000E+00   0.00000000000000E+00
      0.00000000000000E+00   0.00000000000000E+00   5.30842072310533E-16   0.00000000000000E+00   0.00000000000000E+00
      0.00000000000000E+00   0.00000000000000E+00   5.25771969456567E-08  -1.10461416402700E-13   5.25770864842403E-08
     -1.07616771653493E-16  -9.00000000000000E-01  -9.00000000000000E-01   0.00000000000000E+00   0.00000000000000E+00
     -5.25772092261642E-08   3.89535388920904E-10  -5.21876738372433E-08  -4.24951001595582E-16
      2.66666666666667E-01
     -2.66666666666667E-02  -2.66666666666667E-02   0.00000000000000E+00   0.00000000000000E+00   0.00000000000000E+00
      0.00000000000000E+00   0.00000000000000E+00   5.29649595904126E-16   0.00000000000000E+00   0.00000000000000E+00
      0.00000000000000E+00   0.00000000000000E+00   5.56664577516506E-08  -1.80073023959562E-15   5.56664559509204E-08
     -1.06993946319018E-16  -9.00000000000000E-01  -9.00000000000000E-01   0.00000000000000E+00   0.00000000000000E+00
     -5.56664555598689E-08   2.77962584227814E-10  -5.53884929756410E-08  -4.24391109999463E-16
      2.83333333333333E-01
     -2.83333333333333E-02  -2.83333333333333E-02   0.00000000000000E+00   0.00000000000000E+00   0.00000000000000E+00
      0.00000000000000E+00   0.00000000000000E+00   5.28456685576882E-16   0.00000000000000E+00   0.00000000000000E+00
      0.00000000000000E+00   0.00000000000000E+00   5.89363844888998E-08   3.77094886577721E-15   5.89363882598487E-08
     -1.06370958234145E-16  -9.00000000000000E-01  -9.00000000000000E-01   0.00000000000000E+00   0.00000000000000E+00
     -5.89363896035865E-08   1.14121547742752E-10  -5.88222680558437E-08  -4.23831143043321E-16
      3.00000000000000E-01
     -3.00000000000000E-02  -3.00000000000000E-02   0.00000000000000E+00   0.00000000000000E+00   0.00000000000000E+00
      0.00000000000000E+00   0.00000000000000E+00   5.27263338400584E-16   0.00000000000000E+00   0.00000000000000E+00
      0.00000000000000E+00   0.00000000000000E+00   6.23973228901361E-08  -1.23976761125478E-13   6.23971989133749E-08
     -1.05747808092362E-16  -9.00000000000000E-01  -9.00000000000000E-01   0.00000000000000E+00   0.00000000000000E+00
     -6.23973221715916E-08   1.73502844190941E-10  -6.22238193274007E-08  -4.23271102600165E-16
      3.16666666666667E-01
     -3.16666666666667E-02  -3.16666666666667E-02   0.00000000000000E+00   0.00000000000000E+00   0.00000000000000E+00
      0.00000000000000E+00   0.00000000000000E+00   5.26069544981790E-16   0.00000000000000E+00   0.00000000000000E+00
      0.00000000000000E+00   0.00000000000000E+00   6.60602892043793E-08  -1.06411339441589E-13   6.60601827930399E-08
     -1.05124496635554E-16  -9.00000000000000E-01  -9.00000000000000E-01   0.00000000000000E+00   0.00000000000000E+00
     -6.60603057813854E-08   3.04411071050603E-10  -6.57558947103348E-08  -4.22710983629486E-16
      3.33333333333333E-01
     -3.33333333333333E-02  -3.33333333333333E-02   0.00000000000000E+00   0.00000000000000E+00   0.00000000000000E+00
      0.00000000000000E+00   0.00000000000000E+00   5.24875300273830E-16   0.00000000000000E+00   0.00000000000000E+00
      0.00000000000000E+00   0.00000000000000E+00   6.99366195332656E-08  -6.11069340688195E-14   6.99365584263315E-08
     -1.04501024628320E-16  -9.00000000000000E-01  -9.00000000000000E-01   0.00000000000000E+00   0.00000000000000E+00
     -6.99365559693220E-08   2.29132453179864E-10  -6.97074235161422E-08  -4.22150785459281E-16
      3.50000000000000E-01
     -3.50000000000000E-02  -3.50000000000000E-02   0.00000000000000E+00   0.00000000000000E+00   0.00000000000000E+00
      0.00000000000000E+00   0.00000000000000E+00   5.23680605102805E-16   0.00000000000000E+00   0.00000000000000E+00
      0.00000000000000E+00   0.00000000000000E+00   7.40387589152391E-08   8.70913012619178E-15   7.40387676243692E-08
     -1.03877392854797E-16  -9.00000000000000E-01  -9.00000000000000E-01   0.00000000000000E+00   0.00000000000000E+00
     -7.40387670698795E-08   5.97161619504598E-11  -7.39790509079291E-08  -4.21590513654462E-16
      3.66666666666667E-01
     -3.66666666666667E-02  -3.66666666666667E-02   0.00000000000000E+00   0.00000000000000E+00   0.00000000000000E+00
      0.00000000000000E+00   0.00000000000000E+00   5.22485450993437E-16   0.00000000000000E+00   0.00000000000000E+00
      0.00000000000000E+00   0.00000000000000E+00   7.83803803081335E-08   2.08621555139621E-15   7.83803823943491E-08
     -1.03253602149060E-16  -9.00000000000000E-01  -9.00000000000000E-01   0.00000000000000E+00   0.00000000000000E+00
     -7.83803829058223E-08  -1.40159115297245E-10  -7.85205420211196E-08  -4.21030164578480E-16
      3.83333333333333E-01
     -3.83333333333333E-02  -3.83333333333333E-02   0.00000000000000E+00   0.00000000000000E+00   0.00000000000000E+00
      0.00000000000000E+00   0.00000000000000E+00   5.21289834361997E-16   0.00000000000000E+00   0.00000000000000E+00
      0.00000000000000E+00   0.00000000000000E+00   8.29747947311187E-08   6.98469072121400E-15   8.29748017158094E-08
     -1.02629653381798E-16  -9.00000000000000E-01  -9.00000000000000E-01   0.00000000000000E+00   0.00000000000000E+00
     -8.29748030345151E-08  -1.97595166616392E-10  -8.31723982011315E-08  -4.20469739955996E-16
      4.00000000000000E-01
     -4.00000000000000E-02  -4.00000000000000E-02   0.00000000000000E+00   0.00000000000000E+00   0.00000000000000E+00
      0.00000000000000E+00   0.00000000000000E+00   5.20093750799912E-16   0.00000000000000E+00   0.00000000000000E+00
      0.00000000000000E+00   0.00000000000000E+00   8.78364854999099E-08  -1.56391747414312E-14   8.78364698607351E-08
     -1.02005547464306E-16  -9.00000000000000E-01  -9.00000000000000E-01   0.00000000000000E+00   0.00000000000000E+00
     -8.78364707891711E-08  -1.21066344084840E-10  -8.79575371332560E-08  -4.19909240642241E-16
      4.16666666666667E-01
     -4.16666666666667E-02  -4.16666666666667E-02   0.00000000000000E+00   0.00000000000000E+00   0.00000000000000E+00
      0.00000000000000E+00   0.00000000000000E+00   5.18897194424304E-16   0.00000000000000E+00   0.00000000000000E+00
      0.00000000000000E+00   0.00000000000000E+00   9.29808677584490E-08   1.15612996815411E-14   9.29808793197486E-08
     -1.01381285354098E-16  -9.00000000000000E-01  -9.00000000000000E-01   0.00000000000000E+00   0.00000000000000E+00
     -9.29808813348245E-08  -3.71306348527864E-11  -9.30180119696773E-08  -4.19348665978952E-16
      4.33333333333333E-01
     -4.33333333333333E-02  -4.33333333333333E-02   0.00000000000000E+00   0.00000000000000E+00   0.00000000000000E+00
      0.00000000000000E+00   0.00000000000000E+00   5.17700158956154E-16   0.00000000000000E+00   0.00000000000000E+00
      0.00000000000000E+00   0.00000000000000E+00   9.84244284961150E-08   9.94371312819768E-15   9.84244384398281E-08
     -1.00756868038367E-16  -9.00000000000000E-01  -9.00000000000000E-01   0.00000000000000E+00   0.00000000000000E+00
     -9.84244309487374E-08  -3.07363475020905E-11  -9.84551672962394E-08  -4.18788015157557E-16
      4.50000000000000E-01
     -4.50000000000000E-02  -4.50000000000000E-02   0.00000000000000E+00   0.00000000000000E+00   0.00000000000000E+00
      0.00000000000000E+00   0.00000000000000E+00   5.16502641069372E-16   0.00000000000000E+00   0.00000000000000E+00
      0.00000000000000E+00   0.00000000000000E+00   1.04184411064799E-07  -1.19960862580929E-13   1.04184291103936E-07
     -1.00132296549432E-16  -9.00000000000000E-01  -9.00000000000000E-01   0.00000000000000E+00   0.00000000000000E+00
     -1.04184408246640E-07  -1.14363657457392E-10  -1.04298771904097E-07  -4.18227290544120E-16
      4.66666666666667E-01
     -4.66666666666667E-02  -4.66666666666667E-02   0.00000000000000E+00   0.00000000000000E+00   0.00000000000000E+00
      0.00000000000000E+00   0.00000000000000E+00   5.15304627168010E-16   0.00000000000000E+00   0.00000000000000E+00
      0.00000000000000E+00   0.00000000000000E+00   1.10279023697771E-07   1.63706996188513E-15   1.10279025334841E-07
     -9.95075719827413E-17  -9.00000000000000E-01  -9.00000000000000E-01   0.00000000000000E+00   0.00000000000000E+00
     -1.10279025106933E-07  -9.80879267906133E-11  -1.10377113033723E-07  -4.17666484635645E-16
      4.83333333333333E-01
     -4.83333333333333E-02  -4.83333333333333E-02   0.00000000000000E+00   0.00000000000000E+00   0.00000000000000E+00
      0.00000000000000E+00   0.00000000000000E+00   5.14106119697189E-16   0.00000000000000E+00   0.00000000000000E+00
      0.00000000000000E+00   0.00000000000000E+00   1.16727392335944E-07   4.12125065669223E-15   1.16727396457195E-07
     -9.88826954421659E-17  -9.00000000000000E-01  -9.00000000000000E-01   0.00000000000000E+00   0.00000000000000E+00
     -1.16727399344359E-07  -5.39293012914991E-11  -1.16781328645651E-07  -4.17105605941481E-16
      5.00000000000000E-01
     -5.00000000000000E-02  -5.00000000000000E-02   0.00000000000000E+00   0.00000000000000E+00   0.00000000000000E+00
      0.00000000000000E+00   0.00000000000000E+00   5.12907109398375E-16   0.00000000000000E+00   0.00000000000000E+00
      0.00000000000000E+00   0.00000000000000E+00   1.23549921675604E-07  -6.43869848027704E-14   1.23549857288619E-07
     -9.82576681078231E-17  -9.00000000000000E-01  -9.00000000000000E-01   0.00000000000000E+00   0.00000000000000E+00
     -1.23549854341475E-07  -5.87827365154616E-12  -1.23555732615127E-07  -4.16544651529894E-16
      5.16666666666667E-01
     -5.16666666666667E-02  -5.16666666666667E-02   0.00000000000000E+00   0.00000000000000E+00   0.00000000000000E+00
      0.00000000000000E+00   0.00000000000000E+00   5.11707592216151E-16   0.00000000000000E+00   0.00000000000000E+00
      0.00000000000000E+00   0.00000000000000E+00   1.30767929715672E-07  -9.83410169084208E-14   1.30767831374655E-07
     -9.76324911946992E-17  -9.00000000000000E-01  -9.00000000000000E-01   0.00000000000000E+00   0.00000000000000E+00
     -1.30767939508402E-07  -3.75398175238567E-11  -1.30805479325926E-07  -4.15983623722788E-16
      5.33333333333333E-01
     -5.33333333333333E-02  -5.33333333333333E-02   0.00000000000000E+00   0.00000000000000E+00   0.00000000000000E+00
      0.00000000000000E+00   0.00000000000000E+00   5.10507553322645E-16   0.00000000000000E+00   0.00000000000000E+00
      0.00000000000000E+00   0.00000000000000E+00   1.38404351722737E-07   1.79013558341453E-14   1.38404369624092E-07
     -9.70071659974735E-17  -9.00000000000000E-01  -9.00000000000000E-01   0.00000000000000E+00   0.00000000000000E+00
     -1.38404373032118E-07  -6.37222855854427E-11  -1.38468095317704E-07  -4.15422514609581E-16
      5.50000000000000E-01
     -5.50000000000000E-02  -5.50000000000000E-02   0.00000000000000E+00   0.00000000000000E+00   0.00000000000000E+00
      0.00000000000000E+00   0.00000000000000E+00   5.09306996271978E-16   0.00000000000000E+00   0.00000000000000E+00
      0.00000000000000E+00   0.00000000000000E+00   1.46483050795280E-07  -8.65898408181982E-14   1.46482964205439E-07
     -9.63816938137014E-17  -9.00000000000000E-01  -9.00000000000000E-01   0.00000000000000E+00   0.00000000000000E+00
     -1.46483062130841E-07  -9.61343526111283E-11  -1.46579196483452E-07  -4.14861334521580E-16
      5.66666666666667E-01
     -5.66666666666667E-02  -5.66666666666667E-02   0.00000000000000E+00   0.00000000000000E+00   0.00000000000000E+00
      0.00000000000000E+00   0.00000000000000E+00   5.08105906749594E-16   0.00000000000000E+00   0.00000000000000E+00
      0.00000000000000E+00   0.00000000000000E+00   1.55029349901950E-07  -9.54919959210130E-14   1.55029254409954E-07
     -9.57560760369554E-17  -9.00000000000000E-01  -9.00000000000000E-01   0.00000000000000E+00   0.00000000000000E+00
     -1.55029350025554E-07  -8.91856651423830E-11  -1.55118535690697E-07  -4.14300076511769E-16
      5.83333333333333E-01
     -5.83333333333333E-02  -5.83333333333333E-02   0.00000000000000E+00   0.00000000000000E+00   0.00000000000000E+00
      0.00000000000000E+00   0.00000000000000E+00   5.06904276648191E-16   0.00000000000000E+00   0.00000000000000E+00
      0.00000000000000E+00   0.00000000000000E+00   1.64069917284525E-07   1.20280100716526E-14   1.64069929312535E-07
     -9.51303141047517E-17  -9.00000000000000E-01  -9.00000000000000E-01   0.00000000000000E+00   0.00000000000000E+00
     -1.64069929260565E-07   3.61702445838126E-11  -1.64033759015981E-07  -4.13738740142541E-16
      6.00000000000000E-01
     -6.00000000000000E-02  -6.00000000000000E-02   0.00000000000000E+00   0.00000000000000E+00   0.00000000000000E+00
      0.00000000000000E+00   0.00000000000000E+00   5.05702106375334E-16   0.00000000000000E+00   0.00000000000000E+00
      0.00000000000000E+00   0.00000000000000E+00   1.73633075026349E-07  -8.72747872102447E-14   1.73632987751562E-07
     -9.45044094860545E-17  -9.00000000000000E-01  -9.00000000000000E-01   0.00000000000000E+00   0.00000000000000E+00
     -1.73633073351058E-07   1.32870037670319E-10  -1.73500203313387E-07  -4.13177333073536E-16
      6.16666666666667E-01
     -6.16666666666667E-02  -6.16666666666667E-02   0.00000000000000E+00   0.00000000000000E+00   0.00000000000000E+00
      0.00000000000000E+00   0.00000000000000E+00   5.04499380262245E-16   0.00000000000000E+00   0.00000000000000E+00
      0.00000000000000E+00   0.00000000000000E+00   1.83748680161824E-07  -9.63437240176691E-14   1.83748583818100E-07
     -9.38783637518623E-17  -9.00000000000000E-01  -9.00000000000000E-01   0.00000000000000E+00   0.00000000000000E+00
     -1.83748653976497E-07   2.07419269147285E-10  -1.83541234707350E-07  -4.12615847822331E-16
      6.33333333333334E-01
     -6.33333333333334E-02  -6.33333333333334E-02   0.00000000000000E+00   0.00000000000000E+00   0.00000000000000E+00
      0.00000000000000E+00   0.00000000000000E+00   5.03296091540086E-16   0.00000000000000E+00   0.00000000000000E+00
      0.00000000000000E+00   0.00000000000000E+00   1.94448186282284E-07  -7.98452449478915E-14   1.94448106437039E-07
     -9.32521785110230E-17  -9.00000000000000E-01  -9.00000000000000E-01   0.00000000000000E+00   0.00000000000000E+00
     -1.94448170997752E-07   2.93331393566596E-10  -1.94154839604185E-07  -4.12054285955318E-16
      6.50000000000000E-01
     -6.50000000000000E-02  -6.50000000000000E-02   0.00000000000000E+00   0.00000000000000E+00   0.00000000000000E+00
      0.00000000000000E+00   0.00000000000000E+00   5.02092232165896E-16   0.00000000000000E+00   0.00000000000000E+00
      0.00000000000000E+00   0.00000000000000E+00   2.05764887912947E-07  -6.03287082035277E-14   2.05764827584239E-07
     -9.26258554314061E-17  -9.00000000000000E-01  -9.00000000000000E-01   0.00000000000000E+00   0.00000000000000E+00
     -2.05764895277052E-07   4.32556746565259E-10  -2.05332338530487E-07  -4.11492648047699E-16
      6.66666666666667E-01
     -6.66666666666667E-02  -6.66666666666667E-02   0.00000000000000E+00   0.00000000000000E+00   0.00000000000000E+00
      0.00000000000000E+00   0.00000000000000E+00   5.00887790466898E-16   0.00000000000000E+00   0.00000000000000E+00
      0.00000000000000E+00   0.00000000000000E+00   2.17733890179188E-07   2.06891904089532E-14   2.17733910868378E-07
     -9.19993962612776E-17  -9.00000000000000E-01  -9.00000000000000E-01   0.00000000000000E+00   0.00000000000000E+00
     -2.17733918919382E-07   5.52182682547132E-10  -2.17181736236835E-07  -4.10930931756637E-16
      6.83333333333334E-01
     -6.83333333333334E-02  -6.83333333333334E-02   0.00000000000000E+00   0.00000000000000E+00   0.00000000000000E+00
      0.00000000000000E+00   0.00000000000000E+00   4.99682765161866E-16   0.00000000000000E+00   0.00000000000000E+00
      0.00000000000000E+00   0.00000000000000E+00   2.30392328254739E-07  -5.34020869552672E-14   2.30392274852652E-07
     -9.13728027851478E-17  -9.00000000000000E-01  -9.00000000000000E-01   0.00000000000000E+00   0.00000000000000E+00
     -2.30392324761303E-07   6.51261047222958E-10  -2.29741063714080E-07  -4.10369144055292E-16
      7.00000000000001E-01
     -7.00000000000000E-02  -7.00000000000000E-02   0.00000000000000E+00   0.00000000000000E+00   0.00000000000000E+00
      0.00000000000000E+00   0.00000000000000E+00   4.98477138665948E-16   0.00000000000000E+00   0.00000000000000E+00
      0.00000000000000E+00   0.00000000000000E+00   2.43779379310390E-07  -5.71119781033166E-14   2.43779322198412E-07
     -9.07460768968485E-17  -9.00000000000000E-01  -9.00000000000000E-01   0.00000000000000E+00   0.00000000000000E+00
     -2.43779360169079E-07   9.14536409954669E-10  -2.42864823759124E-07  -4.09807277475401E-16
      7.16666666666667E-01
     -7.16666666666667E-02  -7.16666666666667E-02   0.00000000000000E+00   0.00000000000000E+00   0.00000000000000E+00
      0.00000000000000E+00   0.00000000000000E+00   4.97270898933439E-16   0.00000000000000E+00   0.00000000000000E+00
      0.00000000000000E+00   0.00000000000000E+00   2.57936171714281E-07   3.11139287727935E-14   2.57936202828210E-07
     -9.01192205572990E-17  -9.00000000000000E-01  -9.00000000000000E-01   0.00000000000000E+00   0.00000000000000E+00
     -2.57936258704271E-07   1.33140100083737E-09  -2.56604857703434E-07  -4.09245330927517E-16
      7.33333333333334E-01
     -7.33333333333334E-02  -7.33333333333334E-02   0.00000000000000E+00   0.00000000000000E+00   0.00000000000000E+00
      0.00000000000000E+00   0.00000000000000E+00   4.96064045380364E-16   0.00000000000000E+00   0.00000000000000E+00
      0.00000000000000E+00   0.00000000000000E+00   2.72906514084248E-07  -4.63302903945232E-14   2.72906467753957E-07
     -8.94922357555271E-17  -9.00000000000000E-01  -9.00000000000000E-01   0.00000000000000E+00   0.00000000000000E+00
     -2.72906487503489E-07   1.72918013390551E-09  -2.71177307369583E-07  -4.08683312578587E-16
      7.50000000000001E-01
     -7.50000000000001E-02  -7.50000000000001E-02   0.00000000000000E+00   0.00000000000000E+00   0.00000000000000E+00
      0.00000000000000E+00   0.00000000000000E+00   4.94856554795492E-16   0.00000000000000E+00   0.00000000000000E+00
      0.00000000000000E+00   0.00000000000000E+00   2.88736322082769E-07   4.08262360860563E-15   2.88736326165393E-07
     -8.88651246144692E-17  -9.00000000000000E-01  -9.00000000000000E-01   0.00000000000000E+00   0.00000000000000E+00
     -2.88736328252112E-07   2.01696272083290E-09  -2.86719365531279E-07  -4.08121211552267E-16
      7.66666666666667E-01
     -7.66666666666667E-02  -7.66666666666667E-02   0.00000000000000E+00   0.00000000000000E+00   0.00000000000000E+00
      0.00000000000000E+00   0.00000000000000E+00   4.93648426927976E-16   0.00000000000000E+00   0.00000000000000E+00
      0.00000000000000E+00   0.00000000000000E+00   3.05474278033409E-07  -1.08988784805190E-14   3.05474267134531E-07
     -8.82378892865464E-17  -9.00000000000000E-01  -9.00000000000000E-01   0.00000000000000E+00   0.00000000000000E+00
     -3.05474259407041E-07   2.25972614253235E-09  -3.03214533264509E-07  -4.07559037328223E-16
      7.83333333333334E-01
     -7.83333333333334E-02  -7.83333333333334E-02   0.00000000000000E+00   0.00000000000000E+00   0.00000000000000E+00
      0.00000000000000E+00   0.00000000000000E+00   4.92439638072319E-16   0.00000000000000E+00   0.00000000000000E+00
      0.00000000000000E+00   0.00000000000000E+00   3.23171558413029E-07   2.37441461840867E-14   3.23171582157175E-07
     -8.76105320511522E-17  -9.00000000000000E-01  -9.00000000000000E-01   0.00000000000000E+00   0.00000000000000E+00
     -3.23171599950233E-07   2.50061396050363E-09  -3.20670985989729E-07  -4.06996779507415E-16
      8.00000000000001E-01
     -8.00000000000001E-02  -8.00000000000001E-02   0.00000000000000E+00   0.00000000000000E+00   0.00000000000000E+00
      0.00000000000000E+00   0.00000000000000E+00   4.91230189096513E-16   0.00000000000000E+00   0.00000000000000E+00