DF-ISE text

Info {
  version   = 1.0
  type      = xyplot
  datasets  = [
    "time"
    "gate OuterVoltage" "gate InnerVoltage" "gate QuasiFermiPotential" "gate DisplacementCurrent" "gate eCurrent"
    "gate hCurrent" "gate TotalCurrent" "gate Charge" "source OuterVoltage" "source InnerVoltage"
    "source QuasiFermiPotential" "source DisplacementCurrent" "source eCurrent" "source hCurrent" "source TotalCurrent"
    "source Charge" "drain OuterVoltage" "drain InnerVoltage" "drain QuasiFermiPotential" "drain DisplacementCurrent"
    "drain eCurrent" "drain hCurrent" "drain TotalCurrent" "drain Charge" ]
  functions = [
    Time
    OuterVoltage InnerVoltage QuasiFermiPotential DisplacementCurrent eCurrent
    hCurrent TotalCurrent Charge OuterVoltage InnerVoltage
    QuasiFermiPotential DisplacementCurrent eCurrent hCurrent TotalCurrent
    Charge OuterVoltage InnerVoltage QuasiFermiPotential DisplacementCurrent
    eCurrent hCurrent TotalCurrent Charge ]
}

Data {
      0.00000000000000E+00
      0.00000000000000E+00   0.00000000000000E+00   0.00000000000000E+00   0.00000000000000E+00   0.00000000000000E+00
      0.00000000000000E+00   0.00000000000000E+00  -7.97138582245194E-16   0.00000000000000E+00   0.00000000000000E+00
      0.00000000000000E+00   0.00000000000000E+00  -2.12101469258403E-14  -4.18660753172036E-23  -2.12101469677064E-14
      2.70493782450731E-16   7.80000000000000E-01   7.80000000000000E-01   0.00000000000000E+00   0.00000000000000E+00
      2.75795166863897E-11  -4.30228894668098E-15   2.75752143974431E-11   5.38568163813235E-16
      1.66666666666667E-02
      1.66666666666667E-03   1.66666666666667E-03   0.00000000000000E+00   0.00000000000000E+00   0.00000000000000E+00
      0.00000000000000E+00   0.00000000000000E+00  -7.96026060265837E-16   0.00000000000000E+00   0.00000000000000E+00
      0.00000000000000E+00   0.00000000000000E+00  -6.10670124357198E-15  -1.44563026395909E-21  -6.10670268920224E-15
      2.69905542388207E-16   7.80000000000000E-01   7.80000000000000E-01   0.00000000000000E+00   0.00000000000000E+00
      2.72590545353053E-11   1.04566752783284E-18   2.72590555809728E-11   5.38020721577237E-16
      3.33333333333333E-02
      3.33333333333333E-03   3.33333333333333E-03   0.00000000000000E+00   0.00000000000000E+00   0.00000000000000E+00
      0.00000000000000E+00   0.00000000000000E+00  -7.95006840462068E-16   0.00000000000000E+00   0.00000000000000E+00
      0.00000000000000E+00   0.00000000000000E+00  -1.17378044504412E-14  -1.02342787291890E-23  -1.17378044606754E-14
      2.69317160976243E-16   7.80000000000000E-01   7.80000000000000E-01   0.00000000000000E+00   0.00000000000000E+00
      2.69525384206619E-11  -1.72962542214381E-16   2.69523654581197E-11   5.37473139895344E-16
      5.00000000000000E-02
      5.00000000000000E-03   5.00000000000000E-03   0.00000000000000E+00   0.00000000000000E+00   0.00000000000000E+00
      0.00000000000000E+00   0.00000000000000E+00  -7.94511228488464E-16   0.00000000000000E+00   0.00000000000000E+00
      0.00000000000000E+00   0.00000000000000E+00  -4.72839608623819E-14  -5.09638564283427E-22  -4.72839613720204E-14
      2.68728333832736E-16   7.80000000000000E-01   7.80000000000000E-01   0.00000000000000E+00   0.00000000000000E+00
      2.66762031618549E-11   4.50149573939799E-16   2.66766533114288E-11   5.36925289312829E-16
      6.66666666666667E-02
      6.66666666666667E-03   6.66666666666667E-03   0.00000000000000E+00   0.00000000000000E+00   0.00000000000000E+00
      0.00000000000000E+00   0.00000000000000E+00  -7.96867375614530E-16   0.00000000000000E+00   0.00000000000000E+00
      0.00000000000000E+00   0.00000000000000E+00  -2.05305629868854E-13   9.54615134652730E-22  -2.05305628914239E-13
      2.68137428458232E-16   7.80000000000000E-01   7.80000000000000E-01   0.00000000000000E+00   0.00000000000000E+00
      2.63637638027685E-11   4.17705438497748E-15   2.63679408571535E-11   5.36376441249927E-16
      8.33333333333333E-02
      8.33333333333333E-03   8.33333333333333E-03   0.00000000000000E+00   0.00000000000000E+00   0.00000000000000E+00
      0.00000000000000E+00   0.00000000000000E+00  -8.13588059793338E-16   0.00000000000000E+00   0.00000000000000E+00
      0.00000000000000E+00   0.00000000000000E+00  -9.35603980622380E-13   5.12532539799215E-20  -9.35603929369126E-13
      2.67535904518253E-16   7.80000000000000E-01   7.80000000000000E-01   0.00000000000000E+00   0.00000000000000E+00
      2.59099635050295E-11   3.95638049194311E-15   2.59139198855214E-11   5.35822784122380E-16
      1.00000000000000E-01
      1.00000000000000E-02   1.00000000000000E-02   0.00000000000000E+00   0.00000000000000E+00   0.00000000000000E+00
      0.00000000000000E+00   0.00000000000000E+00  -8.83506270066728E-16   0.00000000000000E+00   0.00000000000000E+00
      0.00000000000000E+00   0.00000000000000E+00  -3.57569140114944E-12   1.01038898159575E-15  -3.57468101216784E-12
      2.66887584639642E-16   7.80000000000000E-01   7.80000000000000E-01   0.00000000000000E+00   0.00000000000000E+00
      2.53605983404463E-11   1.12856101137763E-15   2.53617269014577E-11   5.35248197589863E-16
      1.16666666666667E-01
      1.16666666666667E-02   1.16666666666667E-02   0.00000000000000E+00   0.00000000000000E+00   0.00000000000000E+00
      0.00000000000000E+00   0.00000000000000E+00  -1.05342204221252E-15   0.00000000000000E+00   0.00000000000000E+00
      0.00000000000000E+00   0.00000000000000E+00  -1.07527877724228E-11  -2.31940206571972E-17  -1.07528109664434E-11
      2.66105345015495E-16   7.80000000000000E-01   7.80000000000000E-01   0.00000000000000E+00   0.00000000000000E+00
      2.48387377300440E-11   5.81835850741798E-15   2.48445560885514E-11   5.34613996091601E-16
      1.33333333333333E-01
      1.33333333333333E-02   1.33333333333333E-02   0.00000000000000E+00   0.00000000000000E+00   0.00000000000000E+00
      0.00000000000000E+00   0.00000000000000E+00  -1.31649852798251E-15   0.00000000000000E+00   0.00000000000000E+00
      0.00000000000000E+00   0.00000000000000E+00  -2.87293566016105E-11  -1.12523550815191E-16  -2.87294691251613E-11
      2.65089635034391E-16   7.80000000000000E-01   7.80000000000000E-01   0.00000000000000E+00   0.00000000000000E+00
      2.46837603772715E-11   1.72616746758425E-13   2.48563771240299E-11   5.33876459587296E-16
      1.50000000000000E-01
      1.50000000000000E-02   1.50000000000000E-02   0.00000000000000E+00   0.00000000000000E+00   0.00000000000000E+00
      0.00000000000000E+00   0.00000000000000E+00  -1.64863496134115E-15   0.00000000000000E+00   0.00000000000000E+00
      0.00000000000000E+00   0.00000000000000E+00  -7.09445474228204E-11  -4.16637927038755E-17  -7.09445890866131E-11
      2.63757113606855E-16   7.80000000000000E-01   7.80000000000000E-01   0.00000000000000E+00   0.00000000000000E+00
      2.51188350884042E-11  -4.37694221135417E-14   2.50750656662906E-11   5.33000089107237E-16
      1.66666666666667E-01
      1.66666666666667E-02   1.66666666666667E-02   0.00000000000000E+00   0.00000000000000E+00   0.00000000000000E+00
      0.00000000000000E+00   0.00000000000000E+00  -2.03201965215701E-15   0.00000000000000E+00   0.00000000000000E+00
      0.00000000000000E+00   0.00000000000000E+00  -1.63028757085973E-10   9.34158767435282E-17  -1.63028663670097E-10
      2.62040569639138E-16   7.80000000000000E-01   7.80000000000000E-01   0.00000000000000E+00   0.00000000000000E+00
      2.55830946432512E-11  -4.92518532133725E-14   2.55338427900378E-11   5.31958233041953E-16
      1.83333333333333E-01
      1.83333333333333E-02   1.83333333333333E-02   0.00000000000000E+00   0.00000000000000E+00   0.00000000000000E+00
      0.00000000000000E+00   0.00000000000000E+00  -2.45441773164029E-15   0.00000000000000E+00   0.00000000000000E+00
      0.00000000000000E+00   0.00000000000000E+00  -3.48613344992601E-10  -1.21787191966767E-14  -3.48625523711798E-10
      2.59881308910880E-16   7.80000000000000E-01   7.80000000000000E-01   0.00000000000000E+00   0.00000000000000E+00
      2.61499919643575E-11  -1.53520165272044E-14   2.61346399478303E-11   5.30730794923953E-16
      2.00000000000000E-01
      2.00000000000000E-02   2.00000000000000E-02   0.00000000000000E+00   0.00000000000000E+00   0.00000000000000E+00
      0.00000000000000E+00   0.00000000000000E+00  -2.90757896672346E-15   0.00000000000000E+00   0.00000000000000E+00
      0.00000000000000E+00   0.00000000000000E+00  -6.91830220039142E-10  -2.16820971857831E-15  -6.91832388248861E-10
      2.57216668389140E-16   7.80000000000000E-01   7.80000000000000E-01   0.00000000000000E+00   0.00000000000000E+00
      2.68736044166938E-11  -5.01745997703000E-15   2.68685869567167E-11   5.29301052953839E-16
      2.16666666666667E-01
      2.16666666666667E-02   2.16666666666667E-02   0.00000000000000E+00   0.00000000000000E+00   0.00000000000000E+00
      0.00000000000000E+00   0.00000000000000E+00  -3.38558505462923E-15   0.00000000000000E+00   0.00000000000000E+00
      0.00000000000000E+00   0.00000000000000E+00  -1.27924477129992E-09  -5.51036490998533E-15  -1.27925028166483E-09
      2.53969790528894E-16   7.80000000000000E-01   7.80000000000000E-01   0.00000000000000E+00   0.00000000000000E+00
      2.83719325703273E-11  -6.86447278672557E-15   2.83650680975406E-11   5.27654296783484E-16
      2.33333333333333E-01
      2.33333333333333E-02   2.33333333333333E-02   0.00000000000000E+00   0.00000000000000E+00   0.00000000000000E+00
      0.00000000000000E+00   0.00000000000000E+00  -3.88400632415832E-15   0.00000000000000E+00   0.00000000000000E+00
      0.00000000000000E+00   0.00000000000000E+00  -2.23804834663798E-09  -8.05889179400341E-15  -2.23805640552978E-09
      2.50042911179829E-16   7.80000000000000E-01   7.80000000000000E-01   0.00000000000000E+00   0.00000000000000E+00
      3.30109383301365E-11  -5.94789414579787E-15   3.30049904359907E-11   5.25777172972372E-16
      2.50000000000000E-01
      2.50000000000000E-02   2.50000000000000E-02   0.00000000000000E+00   0.00000000000000E+00   0.00000000000000E+00
      0.00000000000000E+00   0.00000000000000E+00  -4.39943397841094E-15   0.00000000000000E+00   0.00000000000000E+00
      0.00000000000000E+00   0.00000000000000E+00  -3.88893826508576E-09  -5.86844448773947E-15  -3.88894413353025E-09
      2.45342146245434E-16   7.80000000000000E-01   7.80000000000000E-01   0.00000000000000E+00   0.00000000000000E+00
      5.21652868022569E-11  -2.15048558439619E-15   5.21631363166725E-11   5.23661177175179E-16
      2.66666666666667E-01
      2.66666666666667E-02   2.66666666666667E-02   0.00000000000000E+00   0.00000000000000E+00   0.00000000000000E+00
      0.00000000000000E+00   0.00000000000000E+00  -4.92911164763424E-15   0.00000000000000E+00   0.00000000000000E+00
      0.00000000000000E+00   0.00000000000000E+00  -7.57081087768605E-09  -2.39412905199452E-15  -7.57081327181510E-09
      2.39880120815553E-16   7.80000000000000E-01   7.80000000000000E-01   0.00000000000000E+00   0.00000000000000E+00
      1.41122281427933E-10   2.46534985317593E-14   1.41146934926465E-10   5.21301849783023E-16
      2.83333333333333E-01
      2.83333333333333E-02   2.83333333333333E-02   0.00000000000000E+00   0.00000000000000E+00   0.00000000000000E+00
      0.00000000000000E+00   0.00000000000000E+00  -5.47058065187752E-15   0.00000000000000E+00   0.00000000000000E+00
      0.00000000000000E+00   0.00000000000000E+00  -1.97256255894820E-08  -3.04295132792364E-13  -1.97259298846147E-08
      2.33835951228118E-16   7.80000000000000E-01   7.80000000000000E-01   0.00000000000000E+00   0.00000000000000E+00
      5.87306651766278E-10   8.93935449688228E-14   5.87396045311247E-10   5.18706386033795E-16
      3.00000000000000E-01
      3.00000000000000E-02   3.00000000000000E-02   0.00000000000000E+00   0.00000000000000E+00   0.00000000000000E+00
      0.00000000000000E+00   0.00000000000000E+00  -6.02215577903265E-15   0.00000000000000E+00   0.00000000000000E+00
      0.00000000000000E+00   0.00000000000000E+00  -7.24401013580661E-08   4.32749148946429E-12  -7.24357738665767E-08
      2.27533029614589E-16   7.80000000000000E-01   7.80000000000000E-01   0.00000000000000E+00   0.00000000000000E+00
      2.85953761865718E-09   7.28874637445479E-13   2.86026649329462E-09   5.15944268783961E-16
      3.16666666666667E-01
      3.16666666666667E-02   3.16666666666667E-02   0.00000000000000E+00   0.00000000000000E+00   0.00000000000000E+00
      0.00000000000000E+00   0.00000000000000E+00  -6.58142676991744E-15   0.00000000000000E+00   0.00000000000000E+00
      0.00000000000000E+00   0.00000000000000E+00  -3.26895021299915E-07   4.02167013528445E-11  -3.26854804598562E-07
      2.21478658432993E-16   7.80000000000000E-01   7.80000000000000E-01   0.00000000000000E+00   0.00000000000000E+00
      1.45674559281115E-08   1.53995044491788E-11   1.45828554325607E-08   5.13238857382173E-16
      3.33333333333333E-01
      3.33333333333333E-02   3.33333333333333E-02   0.00000000000000E+00   0.00000000000000E+00   0.00000000000000E+00
      0.00000000000000E+00   0.00000000000000E+00  -7.14261811118543E-15   0.00000000000000E+00   0.00000000000000E+00
      0.00000000000000E+00   0.00000000000000E+00  -1.56600871209133E-06   3.14658991867483E-10  -1.56569405309947E-06
      2.16280621220313E-16   7.80000000000000E-01   7.80000000000000E-01   0.00000000000000E+00   0.00000000000000E+00
      7.24440828112154E-08   1.85655827130954E-10   7.26297386383464E-08   5.11041306921557E-16
      3.50000000000000E-01
      3.50000000000000E-02   3.50000000000000E-02   0.00000000000000E+00   0.00000000000000E+00   0.00000000000000E+00
      0.00000000000000E+00   0.00000000000000E+00  -7.68120767410727E-15   0.00000000000000E+00   0.00000000000000E+00
      0.00000000000000E+00   0.00000000000000E+00  -6.93728527420717E-06   5.86379064798126E-09  -6.93142148355919E-06
      2.12375825270259E-16   7.80000000000000E-01   7.80000000000000E-01   0.00000000000000E+00   0.00000000000000E+00
      3.31579556904498E-07   1.92151704006304E-09   3.33501073944561E-07   5.09910865259346E-16
      3.66666666666667E-01
      3.66666666666667E-02   3.66666666666667E-02   0.00000000000000E+00   0.00000000000000E+00   0.00000000000000E+00
      0.00000000000000E+00   0.00000000000000E+00  -7.73531769314589E-15   0.00000000000000E+00   0.00000000000000E+00
      0.00000000000000E+00   0.00000000000000E+00  -8.53817423291995E-06   1.74259677888614E-08  -8.52074826513109E-06
      2.11518949287439E-16   7.80000000000000E-01   7.80000000000000E-01   0.00000000000000E+00   0.00000000000000E+00
      4.09450966240308E-07   2.05424518413751E-09   4.11505211424446E-07   5.09384197339687E-16
      3.83333333333333E-01
      3.83333333333333E-02   3.83333333333333E-02   0.00000000000000E+00   0.00000000000000E+00   0.00000000000000E+00
      0.00000000000000E+00   0.00000000000000E+00  -7.77969205564209E-15   0.00000000000000E+00   0.00000000000000E+00
      0.00000000000000E+00   0.00000000000000E+00  -1.01856903442103E-05   1.80353501203659E-08  -1.01676549940899E-05
      2.10735162001655E-16   7.80000000000000E-01   7.80000000000000E-01   0.00000000000000E+00   0.00000000000000E+00
      4.92249116670611E-07   2.95468946558021E-09   4.95203806136191E-07   5.08869157157891E-16
}
