DF-ISE text

Info {
  version   = 1.0
  type      = xyplot
  datasets  = [
    "time"
    "gate OuterVoltage" "gate InnerVoltage" "gate QuasiFermiPotential" "gate DisplacementCurrent" "gate eCurrent"
    "gate hCurrent" "gate TotalCurrent" "gate Charge" "source OuterVoltage" "source InnerVoltage"
    "source QuasiFermiPotential" "source DisplacementCurrent" "source eCurrent" "source hCurrent" "source TotalCurrent"
    "source Charge" "drain OuterVoltage" "drain InnerVoltage" "drain QuasiFermiPotential" "drain DisplacementCurrent"
    "drain eCurrent" "drain hCurrent" "drain TotalCurrent" "drain Charge" ]
  functions = [
    Time
    OuterVoltage InnerVoltage QuasiFermiPotential DisplacementCurrent eCurrent
    hCurrent TotalCurrent Charge OuterVoltage InnerVoltage
    QuasiFermiPotential DisplacementCurrent eCurrent hCurrent TotalCurrent
    Charge OuterVoltage InnerVoltage QuasiFermiPotential DisplacementCurrent
    eCurrent hCurrent TotalCurrent Charge ]
}

Data {
      0.00000000000000E+00
      0.00000000000000E+00   0.00000000000000E+00   0.00000000000000E+00   0.00000000000000E+00   0.00000000000000E+00
      0.00000000000000E+00   0.00000000000000E+00   4.63971142068500E-16   0.00000000000000E+00   0.00000000000000E+00
      0.00000000000000E+00   0.00000000000000E+00   1.85802849572700E-08   1.59149124217668E-15   1.85802865487613E-08
     -1.17010051414519E-16  -6.50000000000000E-01  -6.50000000000000E-01   0.00000000000000E+00   0.00000000000000E+00
     -1.85802867237689E-08  -2.53227451968518E-13  -1.85805399512208E-08  -3.48558974332206E-16
      1.66666666666667E-02
     -1.66666666666667E-03  -1.66666666666667E-03   0.00000000000000E+00   0.00000000000000E+00   0.00000000000000E+00
      0.00000000000000E+00   0.00000000000000E+00   4.62772555012184E-16   0.00000000000000E+00   0.00000000000000E+00
      0.00000000000000E+00   0.00000000000000E+00   1.96832469961966E-08  -1.21839558100682E-16   1.96832468743571E-08
     -1.16389787238289E-16  -6.50000000000000E-01  -6.50000000000000E-01   0.00000000000000E+00   0.00000000000000E+00
     -1.96832492537992E-08  -7.10967565188064E-13  -1.96839602213644E-08  -3.47987867916305E-16
      3.33333333333333E-02
     -3.33333333333333E-03  -3.33333333333333E-03   0.00000000000000E+00   0.00000000000000E+00   0.00000000000000E+00
      0.00000000000000E+00   0.00000000000000E+00   4.61573572983746E-16   0.00000000000000E+00   0.00000000000000E+00
      0.00000000000000E+00   0.00000000000000E+00   2.08516113734817E-08  -7.33940180025280E-16   2.08516106395416E-08
     -1.15769353335118E-16  -6.50000000000000E-01  -6.50000000000000E-01   0.00000000000000E+00   0.00000000000000E+00
     -2.08516115298404E-08  -2.29030667484051E-13  -2.08518405605079E-08  -3.47416672080583E-16
      5.00000000000000E-02
     -5.00000000000000E-03  -5.00000000000000E-03   0.00000000000000E+00   0.00000000000000E+00   0.00000000000000E+00
      0.00000000000000E+00   0.00000000000000E+00   4.60374195868327E-16   0.00000000000000E+00   0.00000000000000E+00
      0.00000000000000E+00   0.00000000000000E+00   2.20890865262817E-08  -1.50699371451906E-13   2.20889358269103E-08
     -1.15148749977448E-16  -6.50000000000000E-01  -6.50000000000000E-01   0.00000000000000E+00   0.00000000000000E+00
     -2.20890935952665E-08  -6.32597871318931E-13  -2.20897261931378E-08  -3.46845389443628E-16
      6.66666666666667E-02
     -6.66666666666667E-03  -6.66666666666667E-03   0.00000000000000E+00   0.00000000000000E+00   0.00000000000000E+00
      0.00000000000000E+00   0.00000000000000E+00   4.59174413652120E-16   0.00000000000000E+00   0.00000000000000E+00
      0.00000000000000E+00   0.00000000000000E+00   2.33996770758022E-08  -1.20203953313543E-16   2.33996769555982E-08
     -1.14527977479900E-16  -6.50000000000000E-01  -6.50000000000000E-01   0.00000000000000E+00   0.00000000000000E+00
     -2.33996769498335E-08   9.85950960564049E-13  -2.33986909988729E-08  -3.46274012852051E-16
      8.33333333333333E-02
     -8.33333333333333E-03  -8.33333333333333E-03   0.00000000000000E+00   0.00000000000000E+00   0.00000000000000E+00
      0.00000000000000E+00   0.00000000000000E+00   4.57974230802151E-16   0.00000000000000E+00   0.00000000000000E+00
      0.00000000000000E+00   0.00000000000000E+00   2.47876077795919E-08  -1.10489430340494E-14   2.47875967306488E-08
     -1.13907036145971E-16  -6.50000000000000E-01  -6.50000000000000E-01   0.00000000000000E+00   0.00000000000000E+00
     -2.47875964374299E-08   8.57895415783861E-13  -2.47867385420141E-08  -3.45702549687533E-16
      1.00000000000000E-01
     -1.00000000000000E-02  -1.00000000000000E-02   0.00000000000000E+00   0.00000000000000E+00   0.00000000000000E+00
      0.00000000000000E+00   0.00000000000000E+00   4.56773643531907E-16   0.00000000000000E+00   0.00000000000000E+00
      0.00000000000000E+00   0.00000000000000E+00   2.62575009650406E-08  -1.05157057118146E-13   2.62573958079835E-08
     -1.13285926316636E-16  -6.50000000000000E-01  -6.50000000000000E-01   0.00000000000000E+00   0.00000000000000E+00
     -2.62575084654239E-08  -4.62191398910250E-13  -2.62579706568228E-08  -3.45130999220662E-16
      1.16666666666667E-01
     -1.16666666666667E-02  -1.16666666666667E-02   0.00000000000000E+00   0.00000000000000E+00   0.00000000000000E+00
      0.00000000000000E+00   0.00000000000000E+00   4.55572644374557E-16   0.00000000000000E+00   0.00000000000000E+00
      0.00000000000000E+00   0.00000000000000E+00   2.78142801873040E-08  -9.78745558433280E-14   2.78141823127481E-08
     -1.12664648367527E-16  -6.50000000000000E-01  -6.50000000000000E-01   0.00000000000000E+00   0.00000000000000E+00
     -2.78142969624508E-08  -1.40923902615812E-12  -2.78157062014770E-08  -3.44559357088328E-16
      1.33333333333333E-01
     -1.33333333333333E-02  -1.33333333333333E-02   0.00000000000000E+00   0.00000000000000E+00   0.00000000000000E+00
      0.00000000000000E+00   0.00000000000000E+00   4.54371231758309E-16   0.00000000000000E+00   0.00000000000000E+00
      0.00000000000000E+00   0.00000000000000E+00   2.94631632139857E-08  -1.18002431868347E-13   2.94630452115539E-08
     -1.12043202682062E-16  -6.50000000000000E-01  -6.50000000000000E-01   0.00000000000000E+00   0.00000000000000E+00
     -2.94631626360723E-08  -2.60173545826160E-12  -2.94657643715305E-08  -3.43987624874344E-16
      1.50000000000000E-01
     -1.50000000000000E-02  -1.50000000000000E-02   0.00000000000000E+00   0.00000000000000E+00   0.00000000000000E+00
      0.00000000000000E+00   0.00000000000000E+00   4.53169402410078E-16   0.00000000000000E+00   0.00000000000000E+00
      0.00000000000000E+00   0.00000000000000E+00   3.12093684413383E-08  -9.49691416912558E-14   3.12092734721966E-08
     -1.11421589671540E-16  -6.50000000000000E-01  -6.50000000000000E-01   0.00000000000000E+00   0.00000000000000E+00
     -3.12093898956230E-08  -8.88979352881787E-13  -3.12102788749759E-08  -3.43415802712252E-16
      1.66666666666667E-01
     -1.66666666666667E-02  -1.66666666666667E-02   0.00000000000000E+00   0.00000000000000E+00   0.00000000000000E+00
      0.00000000000000E+00   0.00000000000000E+00   4.51967153353600E-16   0.00000000000000E+00   0.00000000000000E+00
      0.00000000000000E+00   0.00000000000000E+00   3.30586148766791E-08  -1.17498136324040E-13   3.30584973785428E-08
     -1.10799809770206E-16  -6.50000000000000E-01  -6.50000000000000E-01   0.00000000000000E+00   0.00000000000000E+00
     -3.30586162624920E-08   1.89770071114043E-13  -3.30584264924208E-08  -3.42843890816542E-16
      1.83333333333333E-01
     -1.83333333333333E-02  -1.83333333333333E-02   0.00000000000000E+00   0.00000000000000E+00   0.00000000000000E+00
      0.00000000000000E+00   0.00000000000000E+00   4.50764481087606E-16   0.00000000000000E+00   0.00000000000000E+00
      0.00000000000000E+00   0.00000000000000E+00   3.50168795657521E-08  -9.20823452192280E-14   3.50167874834069E-08
     -1.10177863442813E-16  -6.50000000000000E-01  -6.50000000000000E-01   0.00000000000000E+00   0.00000000000000E+00
     -3.50169044522184E-08  -4.24502526050854E-13  -3.50173289547444E-08  -3.42271889082361E-16
      2.00000000000000E-01
     -2.00000000000000E-02  -2.00000000000000E-02   0.00000000000000E+00   0.00000000000000E+00   0.00000000000000E+00
      0.00000000000000E+00   0.00000000000000E+00   4.49561381779975E-16   0.00000000000000E+00   0.00000000000000E+00
      0.00000000000000E+00   0.00000000000000E+00   3.70906969739740E-08  -1.19624443095667E-13   3.70905773495309E-08
     -1.09555751176084E-16  -6.50000000000000E-01  -6.50000000000000E-01   0.00000000000000E+00   0.00000000000000E+00
     -3.70906997180608E-08  -1.13992359900872E-12  -3.70918396416598E-08  -3.41699797245554E-16
      2.16666666666667E-01
     -2.16666666666667E-02  -2.16666666666667E-02   0.00000000000000E+00   0.00000000000000E+00   0.00000000000000E+00
      0.00000000000000E+00   0.00000000000000E+00   4.48357851449896E-16   0.00000000000000E+00   0.00000000000000E+00
      0.00000000000000E+00   0.00000000000000E+00   3.92867917592288E-08  -1.26346102031304E-13   3.92866654131267E-08
     -1.08933473483911E-16  -6.50000000000000E-01  -6.50000000000000E-01   0.00000000000000E+00   0.00000000000000E+00
     -3.92867886202124E-08  -1.80016206762127E-12  -3.92885887822800E-08  -3.41127614981162E-16
      2.33333333333333E-01
     -2.33333333333333E-02  -2.33333333333333E-02   0.00000000000000E+00   0.00000000000000E+00   0.00000000000000E+00
      0.00000000000000E+00   0.00000000000000E+00   4.47153886202930E-16   0.00000000000000E+00   0.00000000000000E+00
      0.00000000000000E+00   0.00000000000000E+00   4.16123463442230E-08  -1.10731317530023E-13   4.16122356129054E-08
     -1.08311030911805E-16  -6.50000000000000E-01  -6.50000000000000E-01   0.00000000000000E+00   0.00000000000000E+00
     -4.16123580262339E-08  -2.33951762660997E-12  -4.16146975438605E-08  -3.40555342147128E-16
      2.50000000000000E-01
     -2.50000000000000E-02  -2.50000000000000E-02   0.00000000000000E+00   0.00000000000000E+00   0.00000000000000E+00
      0.00000000000000E+00   0.00000000000000E+00   4.45949482576165E-16   0.00000000000000E+00   0.00000000000000E+00
      0.00000000000000E+00   0.00000000000000E+00   4.40749902883085E-08  -1.10116719819305E-13   4.40748801715887E-08
     -1.07688424028575E-16  -6.50000000000000E-01  -6.50000000000000E-01   0.00000000000000E+00   0.00000000000000E+00
     -4.40750031896657E-08  -2.79874950822761E-12  -4.40778019391739E-08  -3.39982979123476E-16
      2.66666666666667E-01
     -2.66666666666667E-02  -2.66666666666667E-02   0.00000000000000E+00   0.00000000000000E+00   0.00000000000000E+00
      0.00000000000000E+00   0.00000000000000E+00   4.44744636190069E-16   0.00000000000000E+00   0.00000000000000E+00
      0.00000000000000E+00   0.00000000000000E+00   4.66827368694326E-08  -1.09702110033654E-13   4.66826271673225E-08
     -1.07065653436955E-16  -6.50000000000000E-01  -6.50000000000000E-01   0.00000000000000E+00   0.00000000000000E+00
     -4.66827504356965E-08  -3.35078360751028E-12  -4.66861012193040E-08  -3.39410525495990E-16
      2.83333333333333E-01
     -2.83333333333333E-02  -2.83333333333333E-02   0.00000000000000E+00   0.00000000000000E+00   0.00000000000000E+00
      0.00000000000000E+00   0.00000000000000E+00   4.43539342646312E-16   0.00000000000000E+00   0.00000000000000E+00
      0.00000000000000E+00   0.00000000000000E+00   4.94440836733131E-08  -1.05241743523503E-13   4.94439784315696E-08
     -1.06442719769943E-16  -6.50000000000000E-01  -6.50000000000000E-01   0.00000000000000E+00   0.00000000000000E+00
     -4.94441010734402E-08  -4.19090269972691E-12  -4.94482919761399E-08  -3.38837980954653E-16
      3.00000000000000E-01
     -3.00000000000000E-02  -3.00000000000000E-02   0.00000000000000E+00   0.00000000000000E+00   0.00000000000000E+00
      0.00000000000000E+00   0.00000000000000E+00   4.42333597889997E-16   0.00000000000000E+00   0.00000000000000E+00
      0.00000000000000E+00   0.00000000000000E+00   5.23680478084174E-08  -1.04046845583613E-13   5.23679437615718E-08
     -1.05819623692111E-16  -6.50000000000000E-01  -6.50000000000000E-01   0.00000000000000E+00   0.00000000000000E+00
     -5.23680666194943E-08  -5.46420589066121E-12  -5.23735308253849E-08  -3.38265345664795E-16
      3.16666666666667E-01
     -3.16666666666667E-02  -3.16666666666667E-02   0.00000000000000E+00   0.00000000000000E+00   0.00000000000000E+00
      0.00000000000000E+00   0.00000000000000E+00   4.41127397087631E-16   0.00000000000000E+00   0.00000000000000E+00
      0.00000000000000E+00   0.00000000000000E+00   5.54641793989974E-08  -1.06247420964750E-13   5.54640731515765E-08
     -1.05196365903050E-16  -6.50000000000000E-01  -6.50000000000000E-01   0.00000000000000E+00   0.00000000000000E+00
     -5.54641962833200E-08  -7.22020242542965E-12  -5.54714164857454E-08  -3.37692619144730E-16
      3.33333333333333E-01
     -3.33333333333333E-02  -3.33333333333333E-02   0.00000000000000E+00   0.00000000000000E+00   0.00000000000000E+00
      0.00000000000000E+00   0.00000000000000E+00   4.39920735850269E-16   0.00000000000000E+00   0.00000000000000E+00
      0.00000000000000E+00   0.00000000000000E+00   5.87426084303632E-08  -1.22529426404239E-13   5.87424859009368E-08
     -1.04572947139316E-16  -6.50000000000000E-01  -6.50000000000000E-01   0.00000000000000E+00   0.00000000000000E+00
     -5.87426102869684E-08  -9.35453170344263E-12  -5.87519648186719E-08  -3.37119801471171E-16
      3.50000000000000E-01
     -3.50000000000000E-02  -3.50000000000000E-02   0.00000000000000E+00   0.00000000000000E+00   0.00000000000000E+00
      0.00000000000000E+00   0.00000000000000E+00   4.38713606889836E-16   0.00000000000000E+00   0.00000000000000E+00
      0.00000000000000E+00   0.00000000000000E+00   6.22142197767862E-08   4.05324013291031E-15   6.22142238300263E-08
     -1.03949368166659E-16  -6.50000000000000E-01  -6.50000000000000E-01   0.00000000000000E+00   0.00000000000000E+00
     -6.22142226178833E-08  -7.30245137241166E-12  -6.22215250692557E-08  -3.36546889954099E-16
      3.66666666666667E-01
     -3.66666666666667E-02  -3.66666666666667E-02   0.00000000000000E+00   0.00000000000000E+00   0.00000000000000E+00
      0.00000000000000E+00   0.00000000000000E+00   4.37506008963107E-16   0.00000000000000E+00   0.00000000000000E+00
      0.00000000000000E+00   0.00000000000000E+00   6.58904816196645E-08   1.67134896924755E-14   6.58904983331542E-08
     -1.03325629780491E-16  -6.50000000000000E-01  -6.50000000000000E-01   0.00000000000000E+00   0.00000000000000E+00
     -6.58904988204760E-08  -5.39617746926597E-12  -6.58958949979453E-08  -3.35973888090182E-16
      3.83333333333333E-01
     -3.83333333333333E-02  -3.83333333333333E-02   0.00000000000000E+00   0.00000000000000E+00   0.00000000000000E+00
      0.00000000000000E+00   0.00000000000000E+00   4.36297938008901E-16   0.00000000000000E+00   0.00000000000000E+00
      0.00000000000000E+00   0.00000000000000E+00   6.97829530277793E-08  -1.07605921131662E-13   6.97828454218581E-08
     -1.02701732814071E-16  -6.50000000000000E-01  -6.50000000000000E-01   0.00000000000000E+00   0.00000000000000E+00
     -6.97829687015840E-08  -6.62265796527523E-12  -6.97895913595493E-08  -3.35400796512792E-16
      4.00000000000000E-01
     -4.00000000000000E-02  -4.00000000000000E-02   0.00000000000000E+00   0.00000000000000E+00   0.00000000000000E+00
      0.00000000000000E+00   0.00000000000000E+00   4.35089385934223E-16   0.00000000000000E+00   0.00000000000000E+00
      0.00000000000000E+00   0.00000000000000E+00   7.39039893456690E-08  -1.44706789035938E-13   7.39038446388800E-08
     -1.02077678152786E-16  -6.50000000000000E-01  -6.50000000000000E-01   0.00000000000000E+00   0.00000000000000E+00
     -7.39039681919816E-08  -1.68346816117438E-12  -7.39056516601428E-08  -3.34827612033047E-16
      4.16666666666667E-01
     -4.16666666666667E-02  -4.16666666666667E-02   0.00000000000000E+00   0.00000000000000E+00   0.00000000000000E+00
      0.00000000000000E+00   0.00000000000000E+00   4.33880349751949E-16   0.00000000000000E+00   0.00000000000000E+00
      0.00000000000000E+00   0.00000000000000E+00   7.82667320167272E-08  -1.84926848948689E-13   7.82665470898782E-08
     -1.01453466712963E-16  -6.50000000000000E-01  -6.50000000000000E-01   0.00000000000000E+00   0.00000000000000E+00
     -7.82666722849631E-08   7.73309069457765E-13  -7.82658989758936E-08  -3.34254336621777E-16
      4.33333333333333E-01
     -4.33333333333333E-02  -4.33333333333333E-02   0.00000000000000E+00   0.00000000000000E+00   0.00000000000000E+00
      0.00000000000000E+00   0.00000000000000E+00   4.32670824086440E-16   0.00000000000000E+00   0.00000000000000E+00
      0.00000000000000E+00   0.00000000000000E+00   8.28852224277438E-08  -1.69795794325082E-13   8.28850526319495E-08
     -1.00829099446868E-16  -6.50000000000000E-01  -6.50000000000000E-01   0.00000000000000E+00   0.00000000000000E+00
     -8.28851748195142E-08   1.82735916305898E-13  -8.28849920835979E-08  -3.33680970105046E-16
      4.50000000000000E-01
     -4.50000000000000E-02  -4.50000000000000E-02   0.00000000000000E+00   0.00000000000000E+00   0.00000000000000E+00
      0.00000000000000E+00   0.00000000000000E+00   4.31460803246528E-16   0.00000000000000E+00   0.00000000000000E+00
      0.00000000000000E+00   0.00000000000000E+00   8.77745330098632E-08  -1.54231824627371E-13   8.77743787780386E-08
     -1.00204577357174E-16  -6.50000000000000E-01  -6.50000000000000E-01   0.00000000000000E+00   0.00000000000000E+00
     -8.77744994399863E-08  -1.98160125552740E-12  -8.77764810412418E-08  -3.33107512206538E-16
      4.66666666666667E-01
     -4.66666666666667E-02  -4.66666666666667E-02   0.00000000000000E+00   0.00000000000000E+00   0.00000000000000E+00
      0.00000000000000E+00   0.00000000000000E+00   4.30250281409918E-16   0.00000000000000E+00   0.00000000000000E+00
      0.00000000000000E+00   0.00000000000000E+00   9.29505043383900E-08  -1.03140795418413E-13   9.29504011975946E-08
     -9.95799014860542E-17  -6.50000000000000E-01  -6.50000000000000E-01   0.00000000000000E+00   0.00000000000000E+00
     -9.29505187766708E-08  -3.50675341417287E-12  -9.29540255300850E-08  -3.32533962715441E-16
      4.83333333333333E-01
     -4.83333333333333E-02  -4.83333333333333E-02   0.00000000000000E+00   0.00000000000000E+00   0.00000000000000E+00
      0.00000000000000E+00   0.00000000000000E+00   4.29039252715263E-16   0.00000000000000E+00   0.00000000000000E+00
      0.00000000000000E+00   0.00000000000000E+00   9.84299048390666E-08  -1.00526364974129E-13   9.84298043127016E-08
     -9.89550729196805E-17  -6.50000000000000E-01  -6.50000000000000E-01   0.00000000000000E+00   0.00000000000000E+00
     -9.84299198264085E-08  -2.63685175199357E-12  -9.84325566781605E-08  -3.31960321573192E-16
      5.00000000000000E-01
     -5.00000000000000E-02  -5.00000000000000E-02   0.00000000000000E+00   0.00000000000000E+00   0.00000000000000E+00
      0.00000000000000E+00   0.00000000000000E+00   4.27827711273210E-16   0.00000000000000E+00   0.00000000000000E+00
      0.00000000000000E+00   0.00000000000000E+00   1.04230195995314E-07  -1.08455698658299E-13   1.04230087539615E-07
     -9.83300927918025E-17  -6.50000000000000E-01  -6.50000000000000E-01   0.00000000000000E+00   0.00000000000000E+00
     -1.04230200928661E-07   7.48899878676146E-13  -1.04229452028782E-07  -3.31386588888936E-16
      5.16666666666667E-01
     -5.16666666666667E-02  -5.16666666666667E-02   0.00000000000000E+00   0.00000000000000E+00   0.00000000000000E+00
      0.00000000000000E+00   0.00000000000000E+00   4.26615650996993E-16   0.00000000000000E+00   0.00000000000000E+00
      0.00000000000000E+00   0.00000000000000E+00   1.10369557548354E-07  -1.46131359085794E-13   1.10369411416994E-07
     -9.77049622832207E-17  -6.50000000000000E-01  -6.50000000000000E-01   0.00000000000000E+00   0.00000000000000E+00
     -1.10369525775878E-07   9.92933954632608E-12  -1.10359596436332E-07  -3.30812764848493E-16
      5.33333333333333E-01
     -5.33333333333333E-02  -5.33333333333333E-02   0.00000000000000E+00   0.00000000000000E+00   0.00000000000000E+00
      0.00000000000000E+00   0.00000000000000E+00   4.25403065004536E-16   0.00000000000000E+00   0.00000000000000E+00
      0.00000000000000E+00   0.00000000000000E+00   1.16867455932031E-07  -2.94147002813323E-15   1.16867452990561E-07
     -9.70796826288893E-17  -6.50000000000000E-01  -6.50000000000000E-01   0.00000000000000E+00   0.00000000000000E+00
     -1.16867452671881E-07   5.58158665172933E-12  -1.16861871085229E-07  -3.30238848613017E-16
      5.50000000000000E-01
     -5.50000000000000E-02  -5.50000000000000E-02   0.00000000000000E+00   0.00000000000000E+00   0.00000000000000E+00
      0.00000000000000E+00   0.00000000000000E+00   4.24189949429077E-16   0.00000000000000E+00   0.00000000000000E+00
      0.00000000000000E+00   0.00000000000000E+00   1.23745638215595E-07  -1.50628482002085E-13   1.23745487587113E-07
     -9.64542551044360E-17  -6.50000000000000E-01  -6.50000000000000E-01   0.00000000000000E+00   0.00000000000000E+00
     -1.23745592647116E-07  -9.03735587267898E-12  -1.23754630002989E-07  -3.29664843329408E-16
      5.66666666666667E-01
     -5.66666666666667E-02  -5.66666666666667E-02   0.00000000000000E+00   0.00000000000000E+00   0.00000000000000E+00
      0.00000000000000E+00   0.00000000000000E+00   4.22976292907278E-16   0.00000000000000E+00   0.00000000000000E+00
      0.00000000000000E+00   0.00000000000000E+00   1.31025855200567E-07  -1.21658723291934E-13   1.31025733541844E-07
     -9.58286810558268E-17  -6.50000000000000E-01  -6.50000000000000E-01   0.00000000000000E+00   0.00000000000000E+00
     -1.31025836968856E-07  -7.76412861050817E-12  -1.31033601097467E-07  -3.29090744454839E-16
      5.83333333333333E-01
     -5.83333333333333E-02  -5.83333333333333E-02   0.00000000000000E+00   0.00000000000000E+00   0.00000000000000E+00
      0.00000000000000E+00   0.00000000000000E+00   4.21762089975909E-16   0.00000000000000E+00   0.00000000000000E+00
      0.00000000000000E+00   0.00000000000000E+00   1.38731376384187E-07  -1.29317253719967E-13   1.38731247066933E-07
     -9.52029618681546E-17  -6.50000000000000E-01  -6.50000000000000E-01   0.00000000000000E+00   0.00000000000000E+00
     -1.38731348607832E-07  -4.30461107132545E-12  -1.38735653218903E-07  -3.28516553551512E-16
      6.00000000000000E-01
     -6.00000000000000E-02  -6.00000000000000E-02   0.00000000000000E+00   0.00000000000000E+00   0.00000000000000E+00
      0.00000000000000E+00   0.00000000000000E+00   4.20547333467568E-16   0.00000000000000E+00   0.00000000000000E+00
      0.00000000000000E+00   0.00000000000000E+00   1.46886605514507E-07  -1.17992026252080E-13   1.46886487522481E-07
     -9.45770989830164E-17  -6.50000000000000E-01  -6.50000000000000E-01   0.00000000000000E+00   0.00000000000000E+00
     -1.46886583837554E-07  -6.60802948075568E-13  -1.46887244640502E-07  -3.27942270822027E-16
      6.16666666666667E-01
     -6.16666666666667E-02  -6.16666666666667E-02   0.00000000000000E+00   0.00000000000000E+00   0.00000000000000E+00
      0.00000000000000E+00   0.00000000000000E+00   4.19332015860963E-16   0.00000000000000E+00   0.00000000000000E+00
      0.00000000000000E+00   0.00000000000000E+00   1.55517470928963E-07  -9.40950371957810E-14   1.55517376833926E-07
     -9.39510939084732E-17  -6.50000000000000E-01  -6.50000000000000E-01   0.00000000000000E+00   0.00000000000000E+00
     -1.55517455966938E-07   2.36122402196434E-13  -1.55517219844536E-07  -3.27367896303284E-16
      6.33333333333334E-01
     -6.33333333333334E-02  -6.33333333333334E-02   0.00000000000000E+00   0.00000000000000E+00   0.00000000000000E+00
      0.00000000000000E+00   0.00000000000000E+00   4.18116129127305E-16   0.00000000000000E+00   0.00000000000000E+00
      0.00000000000000E+00   0.00000000000000E+00   1.64651453987302E-07  -9.40072471287680E-14   1.64651359980055E-07
     -9.33249482055617E-17  -6.50000000000000E-01  -6.50000000000000E-01   0.00000000000000E+00   0.00000000000000E+00
     -1.64651440024591E-07  -1.18803701475576E-12  -1.64652628061606E-07  -3.26793429908816E-16
      6.50000000000000E-01
     -6.50000000000000E-02  -6.50000000000000E-02   0.00000000000000E+00   0.00000000000000E+00   0.00000000000000E+00
      0.00000000000000E+00   0.00000000000000E+00   4.16899664795111E-16   0.00000000000000E+00   0.00000000000000E+00
      0.00000000000000E+00   0.00000000000000E+00   1.74317630200398E-07  -1.08188640918008E-13   1.74317522011757E-07
     -9.26986634968589E-17  -6.50000000000000E-01  -6.50000000000000E-01   0.00000000000000E+00   0.00000000000000E+00
     -1.74317598986283E-07  -4.65192769430564E-12  -1.74322250913978E-07  -3.26218871399807E-16
      6.66666666666667E-01
     -6.66666666666667E-02  -6.66666666666667E-02   0.00000000000000E+00   0.00000000000000E+00   0.00000000000000E+00
      0.00000000000000E+00   0.00000000000000E+00   4.15682614368482E-16   0.00000000000000E+00   0.00000000000000E+00
      0.00000000000000E+00   0.00000000000000E+00   1.84546658957645E-07  -7.56492880173432E-14   1.84546583308357E-07
     -9.20722414713899E-17  -6.50000000000000E-01  -6.50000000000000E-01   0.00000000000000E+00   0.00000000000000E+00
     -1.84546653719541E-07  -9.50392186711638E-12  -1.84556157641408E-07  -3.25644220824826E-16
      6.83333333333334E-01
     -6.83333333333334E-02  -6.83333333333334E-02   0.00000000000000E+00   0.00000000000000E+00   0.00000000000000E+00
      0.00000000000000E+00   0.00000000000000E+00   4.14464968571658E-16   0.00000000000000E+00   0.00000000000000E+00
      0.00000000000000E+00   0.00000000000000E+00   1.95371094650907E-07  -8.45045894246331E-14   1.95371010146317E-07
     -9.14456838792477E-17  -6.50000000000000E-01  -6.50000000000000E-01   0.00000000000000E+00   0.00000000000000E+00
     -1.95371073320921E-07  -1.52792474314401E-11  -1.95386352568352E-07  -3.25069477813037E-16
      7.00000000000001E-01
     -7.00000000000000E-02  -7.00000000000000E-02   0.00000000000000E+00   0.00000000000000E+00   0.00000000000000E+00
      0.00000000000000E+00   0.00000000000000E+00   4.13246718241130E-16   0.00000000000000E+00   0.00000000000000E+00
      0.00000000000000E+00   0.00000000000000E+00   2.06825146612166E-07  -7.00423012043260E-14   2.06825076569865E-07
     -9.08189925455539E-17  -6.50000000000000E-01  -6.50000000000000E-01   0.00000000000000E+00   0.00000000000000E+00
     -2.06825121307916E-07  -2.22433532587813E-11  -2.06847364661174E-07  -3.24494642407551E-16
      7.16666666666667E-01
     -7.16666666666667E-02  -7.16666666666667E-02   0.00000000000000E+00   0.00000000000000E+00   0.00000000000000E+00
      0.00000000000000E+00   0.00000000000000E+00   4.12027853534733E-16   0.00000000000000E+00   0.00000000000000E+00
      0.00000000000000E+00   0.00000000000000E+00   2.18945062579415E-07  -7.76936350663762E-14   2.18944984885780E-07
     -9.01921693650196E-17  -6.50000000000000E-01  -6.50000000000000E-01   0.00000000000000E+00   0.00000000000000E+00
     -2.18945014257644E-07  -3.14558555264628E-11  -2.18976470113171E-07  -3.23919714359909E-16
      7.33333333333334E-01
     -7.33333333333334E-02  -7.33333333333334E-02   0.00000000000000E+00   0.00000000000000E+00   0.00000000000000E+00
      0.00000000000000E+00   0.00000000000000E+00   4.10808364106664E-16   0.00000000000000E+00   0.00000000000000E+00
      0.00000000000000E+00   0.00000000000000E+00   2.31769153971004E-07  -8.67092327973265E-14   2.31769067261772E-07
     -8.95652162938341E-17  -6.50000000000000E-01  -6.50000000000000E-01   0.00000000000000E+00   0.00000000000000E+00
     -2.31769098137920E-07  -4.42493289886637E-11  -2.31813347466909E-07  -3.23344693417043E-16
      7.50000000000001E-01
     -7.50000000000001E-02  -7.50000000000001E-02   0.00000000000000E+00   0.00000000000000E+00   0.00000000000000E+00
      0.00000000000000E+00   0.00000000000000E+00   4.09588239253372E-16   0.00000000000000E+00   0.00000000000000E+00
      0.00000000000000E+00   0.00000000000000E+00   2.45337827477140E-07   3.49567073399148E-14   2.45337862433847E-07
     -8.89381353704765E-17  -6.50000000000000E-01  -6.50000000000000E-01   0.00000000000000E+00   0.00000000000000E+00
     -2.45337879848461E-07  -6.13434109010136E-11  -2.45399223259362E-07  -3.22769579254750E-16
      7.66666666666667E-01
     -7.66666666666667E-02  -7.66666666666667E-02   0.00000000000000E+00   0.00000000000000E+00   0.00000000000000E+00
      0.00000000000000E+00   0.00000000000000E+00   4.08367467828499E-16   0.00000000000000E+00   0.00000000000000E+00
      0.00000000000000E+00   0.00000000000000E+00   2.59694174378163E-07   5.40955704855759E-14   2.59694228473734E-07
     -8.83109287082481E-17  -6.50000000000000E-01  -6.50000000000000E-01   0.00000000000000E+00   0.00000000000000E+00
     -2.59694236494677E-07  -8.17108351041228E-11  -2.59775947329782E-07  -3.22194371462053E-16
      7.83333333333334E-01
     -7.83333333333334E-02  -7.83333333333334E-02   0.00000000000000E+00   0.00000000000000E+00   0.00000000000000E+00
      0.00000000000000E+00   0.00000000000000E+00   4.07146034721209E-16   0.00000000000000E+00   0.00000000000000E+00
      0.00000000000000E+00   0.00000000000000E+00   2.74884283111181E-07  -3.83467570095108E-14   2.74884244764424E-07
     -8.76835985108373E-17  -6.50000000000000E-01  -6.50000000000000E-01   0.00000000000000E+00   0.00000000000000E+00
     -2.74884237449238E-07  -9.42724149147460E-11  -2.74978509864153E-07  -3.21619065449924E-16
      8.00000000000001E-01
     -8.00000000000001E-02  -8.00000000000001E-02   0.00000000000000E+00   0.00000000000000E+00   0.00000000000000E+00
      0.00000000000000E+00   0.00000000000000E+00   4.05923932322228E-16   0.00000000000000E+00   0.00000000000000E+00