DF-ISE text

Info {
  version   = 1.0
  type      = xyplot
  datasets  = [
    "time"
    "gate OuterVoltage" "gate InnerVoltage" "gate QuasiFermiPotential" "gate DisplacementCurrent" "gate eCurrent"
    "gate hCurrent" "gate TotalCurrent" "gate Charge" "source OuterVoltage" "source InnerVoltage"
    "source QuasiFermiPotential" "source DisplacementCurrent" "source eCurrent" "source hCurrent" "source TotalCurrent"
    "source Charge" "drain OuterVoltage" "drain InnerVoltage" "drain QuasiFermiPotential" "drain DisplacementCurrent"
    "drain eCurrent" "drain hCurrent" "drain TotalCurrent" "drain Charge" ]
  functions = [
    Time
    OuterVoltage InnerVoltage QuasiFermiPotential DisplacementCurrent eCurrent
    hCurrent TotalCurrent Charge OuterVoltage InnerVoltage
    QuasiFermiPotential DisplacementCurrent eCurrent hCurrent TotalCurrent
    Charge OuterVoltage InnerVoltage QuasiFermiPotential DisplacementCurrent
    eCurrent hCurrent TotalCurrent Charge ]
}

Data {
      0.00000000000000E+00
      0.00000000000000E+00   0.00000000000000E+00   0.00000000000000E+00   0.00000000000000E+00   0.00000000000000E+00
      0.00000000000000E+00   0.00000000000000E+00   5.03300506225160E-16   0.00000000000000E+00   0.00000000000000E+00
      0.00000000000000E+00   0.00000000000000E+00   2.11193157511759E-08  -1.43436816412446E-16   2.11193156077391E-08
     -1.14539530356360E-16  -7.80000000000000E-01  -7.80000000000000E-01   0.00000000000000E+00   0.00000000000000E+00
     -2.11193154169653E-08  -1.90747545975458E-16  -2.11193156077129E-08  -3.89959104075049E-16
      1.66666666666667E-02
     -1.30000000000000E-02  -1.30000000000000E-02   0.00000000000000E+00   0.00000000000000E+00   0.00000000000000E+00
      0.00000000000000E+00   0.00000000000000E+00   4.94062802110895E-16   0.00000000000000E+00   0.00000000000000E+00
      0.00000000000000E+00   0.00000000000000E+00   3.30631537221918E-08  -8.08597765212942E-14   3.30630728624153E-08
     -1.09696779330168E-16  -7.80000000000000E-01  -7.80000000000000E-01   0.00000000000000E+00   0.00000000000000E+00
     -3.30631529157940E-08   3.98264337027739E-15  -3.30631489331506E-08  -3.85575365194435E-16
      3.33333333333333E-02
     -2.60000000000000E-02  -2.60000000000000E-02   0.00000000000000E+00   0.00000000000000E+00   0.00000000000000E+00
      0.00000000000000E+00   0.00000000000000E+00   4.84801213008307E-16   0.00000000000000E+00   0.00000000000000E+00
      0.00000000000000E+00   0.00000000000000E+00   5.17030048057198E-08   1.72492452782953E-17   5.17030048229691E-08
     -1.04838725659698E-16  -7.80000000000000E-01  -7.80000000000000E-01   0.00000000000000E+00   0.00000000000000E+00
     -5.17030047002843E-08  -1.22725695657935E-16  -5.17030048230100E-08  -3.81187020297053E-16
      5.00000000000000E-02
     -3.90000000000000E-02  -3.90000000000000E-02   0.00000000000000E+00   0.00000000000000E+00   0.00000000000000E+00
      0.00000000000000E+00   0.00000000000000E+00   4.75513920431321E-16   0.00000000000000E+00   0.00000000000000E+00
      0.00000000000000E+00   0.00000000000000E+00   8.07478396109974E-08   4.72940984639160E-18   8.07478396157268E-08
     -9.99650538873131E-17  -7.80000000000000E-01  -7.80000000000000E-01   0.00000000000000E+00   0.00000000000000E+00
     -8.07478396753485E-08   5.94797040766428E-17  -8.07478396158688E-08  -3.76794051813915E-16
      6.66666666666667E-02
     -5.20000000000000E-02  -5.20000000000000E-02   0.00000000000000E+00   0.00000000000000E+00   0.00000000000000E+00
      0.00000000000000E+00   0.00000000000000E+00   4.66198636000409E-16   0.00000000000000E+00   0.00000000000000E+00
      0.00000000000000E+00   0.00000000000000E+00   1.25924584576639E-07  -7.37805657417366E-17   1.25924584502858E-07
     -9.50755470854013E-17  -7.80000000000000E-01  -7.80000000000000E-01   0.00000000000000E+00   0.00000000000000E+00
     -1.25924584376473E-07  -1.26411477701230E-16  -1.25924584502884E-07  -3.72396449860271E-16
      8.33333333333333E-02
     -6.50000000000000E-02  -6.50000000000000E-02   0.00000000000000E+00   0.00000000000000E+00   0.00000000000000E+00
      0.00000000000000E+00   0.00000000000000E+00   4.56852421212524E-16   0.00000000000000E+00   0.00000000000000E+00
      0.00000000000000E+00   0.00000000000000E+00   1.96044610801148E-07   5.26890965262172E-17   1.96044610853837E-07
     -9.01701342963819E-17  -7.80000000000000E-01  -7.80000000000000E-01   0.00000000000000E+00   0.00000000000000E+00
     -1.96044610753333E-07  -1.00568200248146E-16  -1.96044610853902E-07  -3.67994216601989E-16
      1.00000000000000E-01
     -7.80000000000000E-02  -7.80000000000000E-02   0.00000000000000E+00   0.00000000000000E+00   0.00000000000000E+00
      0.00000000000000E+00   0.00000000000000E+00   4.47471434265333E-16   0.00000000000000E+00   0.00000000000000E+00
      0.00000000000000E+00   0.00000000000000E+00   3.04604730543179E-07   9.87297707592005E-17   3.04604730641908E-07
     -8.52489534260088E-17  -7.80000000000000E-01  -7.80000000000000E-01   0.00000000000000E+00   0.00000000000000E+00
     -3.04604730787312E-07   1.45252369694749E-16  -3.04604730642060E-07  -3.63587372545212E-16
      1.16666666666667E-01
     -9.10000000000000E-02  -9.10000000000000E-02   0.00000000000000E+00   0.00000000000000E+00   0.00000000000000E+00
      0.00000000000000E+00   0.00000000000000E+00   4.38050576883146E-16   0.00000000000000E+00   0.00000000000000E+00
      0.00000000000000E+00   0.00000000000000E+00   4.72162208524032E-07  -5.81797741430733E-17   4.72162208465852E-07
     -8.03124332635557E-17  -7.80000000000000E-01  -7.80000000000000E-01   0.00000000000000E+00   0.00000000000000E+00
     -4.72162208482646E-07   1.64578498490486E-17  -4.72162208466188E-07  -3.59175965433367E-16
      1.33333333333333E-01
     -1.04000000000000E-01  -1.04000000000000E-01   0.00000000000000E+00   0.00000000000000E+00   0.00000000000000E+00
      0.00000000000000E+00   0.00000000000000E+00   4.28583008914047E-16   0.00000000000000E+00   0.00000000000000E+00
      0.00000000000000E+00   0.00000000000000E+00   7.29801525302944E-07   5.04625366332829E-16   7.29801525807569E-07
     -7.53613978289882E-17  -7.80000000000000E-01  -7.80000000000000E-01   0.00000000000000E+00   0.00000000000000E+00
     -7.29801526817635E-07   6.60105663062748E-16  -7.29801526157530E-07  -3.54760082814852E-16
      1.50000000000000E-01
     -1.17000000000000E-01  -1.17000000000000E-01   0.00000000000000E+00   0.00000000000000E+00   0.00000000000000E+00
      0.00000000000000E+00   0.00000000000000E+00   4.19059496731626E-16   0.00000000000000E+00   0.00000000000000E+00
      0.00000000000000E+00   0.00000000000000E+00   1.12408355965899E-06  -1.05009014857446E-15   1.12408355860890E-06
     -7.03971945676640E-17  -7.80000000000000E-01  -7.80000000000000E-01   0.00000000000000E+00   0.00000000000000E+00
     -1.12408355951911E-06   5.55453831555526E-16  -1.12408355896366E-06  -3.50339869515777E-16
      1.66666666666667E-01
     -1.30000000000000E-01  -1.30000000000000E-01   0.00000000000000E+00   0.00000000000000E+00   0.00000000000000E+00
      0.00000000000000E+00   0.00000000000000E+00   4.09467568873336E-16   0.00000000000000E+00   0.00000000000000E+00
      0.00000000000000E+00   0.00000000000000E+00   1.72389580191838E-06  -1.08792506573106E-15   1.72389580083046E-06
     -6.54218438583245E-17  -7.80000000000000E-01  -7.80000000000000E-01   0.00000000000000E+00   0.00000000000000E+00
     -1.72389580391332E-06   1.66873678110821E-15  -1.72389580224458E-06  -3.45915550965470E-16
      1.83333333333333E-01
     -1.43000000000000E-01  -1.43000000000000E-01   0.00000000000000E+00   0.00000000000000E+00   0.00000000000000E+00
      0.00000000000000E+00   0.00000000000000E+00   3.99790479271946E-16   0.00000000000000E+00   0.00000000000000E+00
      0.00000000000000E+00   0.00000000000000E+00   2.62952948037825E-06  -9.49704914824402E-15   2.62952947088121E-06
     -6.04381995695309E-17  -7.80000000000000E-01  -7.80000000000000E-01   0.00000000000000E+00   0.00000000000000E+00
     -2.62952947799249E-06   1.69308528903274E-17  -2.62952947797556E-06  -3.41487462800935E-16
      2.00000000000000E-01
     -1.56000000000000E-01  -1.56000000000000E-01   0.00000000000000E+00   0.00000000000000E+00   0.00000000000000E+00
      0.00000000000000E+00   0.00000000000000E+00   3.90006036775514E-16   0.00000000000000E+00   0.00000000000000E+00
      0.00000000000000E+00   0.00000000000000E+00   3.98398222166623E-06  -2.45959066459674E-14   3.98398219707033E-06
     -5.54500980514542E-17  -7.80000000000000E-01  -7.80000000000000E-01   0.00000000000000E+00   0.00000000000000E+00
     -3.98398222359691E-06  -1.50407910415641E-15  -3.98398222510099E-06  -3.37056085965538E-16
      2.16666666666667E-01
     -1.69000000000000E-01  -1.69000000000000E-01   0.00000000000000E+00   0.00000000000000E+00   0.00000000000000E+00
      0.00000000000000E+00   0.00000000000000E+00   3.80085455597961E-16   0.00000000000000E+00   0.00000000000000E+00
      0.00000000000000E+00   0.00000000000000E+00   5.98581935352844E-06  -8.25500239888584E-14   5.98581927097842E-06
     -5.04624571334598E-17  -7.80000000000000E-01  -7.80000000000000E-01   0.00000000000000E+00   0.00000000000000E+00
     -5.98581935196033E-06  -9.95640645215015E-15  -5.98581936191674E-06  -3.32622084354968E-16
      2.33333333333333E-01
     -1.82000000000000E-01  -1.82000000000000E-01   0.00000000000000E+00   0.00000000000000E+00   0.00000000000000E+00
      0.00000000000000E+00   0.00000000000000E+00   3.69992493903300E-16   0.00000000000000E+00   0.00000000000000E+00
      0.00000000000000E+00   0.00000000000000E+00   8.90198978733692E-06  -2.48038522551934E-13   8.90198953929840E-06
     -4.54812736323069E-17  -7.80000000000000E-01  -7.80000000000000E-01   0.00000000000000E+00   0.00000000000000E+00
     -8.90198978959298E-06  -3.55991657091915E-16  -8.90198978994897E-06  -3.28186339053945E-16
      2.50000000000000E-01
     -1.95000000000000E-01  -1.95000000000000E-01   0.00000000000000E+00   0.00000000000000E+00   0.00000000000000E+00
      0.00000000000000E+00   0.00000000000000E+00   3.59683190761704E-16   0.00000000000000E+00   0.00000000000000E+00
      0.00000000000000E+00   0.00000000000000E+00   1.30783685273572E-05  -5.90452324402555E-13   1.30783679369048E-05
     -4.05134719002055E-17  -7.80000000000000E-01  -7.80000000000000E-01   0.00000000000000E+00   0.00000000000000E+00
     -1.30783685357996E-05  -6.46598153169082E-16  -1.30783685364462E-05  -3.23749969365628E-16
      2.66666666666667E-01
     -2.08000000000000E-01  -2.08000000000000E-01   0.00000000000000E+00   0.00000000000000E+00   0.00000000000000E+00
      0.00000000000000E+00   0.00000000000000E+00   3.49106295714325E-16   0.00000000000000E+00   0.00000000000000E+00
      0.00000000000000E+00   0.00000000000000E+00   1.89471174745791E-05  -1.23645700211922E-12   1.89471162381221E-05
     -3.55666010079589E-17  -7.80000000000000E-01  -7.80000000000000E-01   0.00000000000000E+00   0.00000000000000E+00
     -1.89471174793390E-05  -4.15159720554866E-15  -1.89471174834906E-05  -3.19314329015069E-16
      2.83333333333333E-01
     -2.21000000000000E-01  -2.21000000000000E-01   0.00000000000000E+00   0.00000000000000E+00   0.00000000000000E+00
      0.00000000000000E+00   0.00000000000000E+00   3.38203656896685E-16   0.00000000000000E+00   0.00000000000000E+00
      0.00000000000000E+00   0.00000000000000E+00   2.70369033557466E-05  -2.27895134296712E-12   2.70369010767952E-05
     -3.06484919143191E-17  -7.80000000000000E-01  -7.80000000000000E-01   0.00000000000000E+00   0.00000000000000E+00
     -2.70369033430803E-05  -6.62973217743484E-15  -2.70369033497100E-05  -3.14880988238722E-16
      3.00000000000000E-01
     -2.34000000000000E-01  -2.34000000000000E-01   0.00000000000000E+00   0.00000000000000E+00   0.00000000000000E+00
      0.00000000000000E+00   0.00000000000000E+00   3.26907320195431E-16   0.00000000000000E+00   0.00000000000000E+00
      0.00000000000000E+00   0.00000000000000E+00   3.80160089802990E-05  -3.74139381120599E-12   3.80160052389052E-05
     -2.57672490985463E-17  -7.80000000000000E-01  -7.80000000000000E-01   0.00000000000000E+00   0.00000000000000E+00
     -3.80160089249989E-05  -8.97858541070577E-14  -3.80160090147847E-05  -3.10451796862567E-16
      3.16666666666667E-01
     -2.47000000000000E-01  -2.47000000000000E-01   0.00000000000000E+00   0.00000000000000E+00   0.00000000000000E+00
      0.00000000000000E+00   0.00000000000000E+00   3.15117811337667E-16   0.00000000000000E+00   0.00000000000000E+00
      0.00000000000000E+00   0.00000000000000E+00   5.29192364623819E-05  -6.36474277377686E-12   5.29192300976391E-05
     -2.09330826937862E-17  -7.80000000000000E-01  -7.80000000000000E-01   0.00000000000000E+00   0.00000000000000E+00
     -5.29192364444841E-05  -2.22439401163581E-14  -5.29192364667280E-05  -3.06029460053352E-16
      3.33333333333333E-01
     -2.60000000000000E-01  -2.60000000000000E-01   0.00000000000000E+00   0.00000000000000E+00   0.00000000000000E+00
      0.00000000000000E+00   0.00000000000000E+00   3.03030505623992E-16   0.00000000000000E+00   0.00000000000000E+00
      0.00000000000000E+00   0.00000000000000E+00   7.01975383159606E-05  -2.78762200150231E-11   7.01975104397406E-05
     -1.61276729862981E-17  -7.80000000000000E-01  -7.80000000000000E-01   0.00000000000000E+00   0.00000000000000E+00
     -7.01975382604548E-05  -9.77849546727343E-14  -7.01975383582398E-05  -3.01608453905237E-16
      3.50000000000000E-01
     -2.73000000000000E-01  -2.73000000000000E-01   0.00000000000000E+00   0.00000000000000E+00   0.00000000000000E+00
      0.00000000000000E+00   0.00000000000000E+00   2.90936785858296E-16   0.00000000000000E+00   0.00000000000000E+00
      0.00000000000000E+00   0.00000000000000E+00   8.69993849687758E-05   3.07783752325268E-12   8.69993880466133E-05
     -1.13189352896444E-17  -7.80000000000000E-01  -7.80000000000000E-01   0.00000000000000E+00   0.00000000000000E+00
     -8.69993853796382E-05  -5.97684831793869E-13  -8.69993859773231E-05  -2.97180496653683E-16
      3.66666666666667E-01
     -2.86000000000000E-01  -2.86000000000000E-01   0.00000000000000E+00   0.00000000000000E+00   0.00000000000000E+00
      0.00000000000000E+00   0.00000000000000E+00   2.78503216056381E-16   0.00000000000000E+00   0.00000000000000E+00
      0.00000000000000E+00   0.00000000000000E+00   1.06009670751573E-04  -1.76147871007540E-11   1.06009653136785E-04
     -6.55027807675115E-18  -7.80000000000000E-01  -7.80000000000000E-01   0.00000000000000E+00   0.00000000000000E+00
     -1.06009670585977E-04  -1.55385772284510E-13  -1.06009670741362E-04  -2.92754006685398E-16
      3.83333333333333E-01
     -2.99000000000000E-01  -2.99000000000000E-01   0.00000000000000E+00   0.00000000000000E+00   0.00000000000000E+00
      0.00000000000000E+00   0.00000000000000E+00   2.65733570776103E-16   0.00000000000000E+00   0.00000000000000E+00
      0.00000000000000E+00   0.00000000000000E+00   1.27230660337067E-04  -8.18211917511082E-12   1.27230652154948E-04
     -1.81833997867539E-18  -7.80000000000000E-01  -7.80000000000000E-01   0.00000000000000E+00   0.00000000000000E+00
     -1.27230660150799E-04  -1.61028194682822E-13  -1.27230660311827E-04  -2.88328849511927E-16
      4.00000000000000E-01
     -3.12000000000000E-01  -3.12000000000000E-01   0.00000000000000E+00   0.00000000000000E+00   0.00000000000000E+00
      0.00000000000000E+00   0.00000000000000E+00   2.52636266382724E-16   0.00000000000000E+00   0.00000000000000E+00
      0.00000000000000E+00   0.00000000000000E+00   1.50610050621595E-04  -4.23965555357113E-12   1.50610046381939E-04
      2.87974918686037E-18  -7.80000000000000E-01  -7.80000000000000E-01   0.00000000000000E+00   0.00000000000000E+00
     -1.50610050718868E-04   4.05481784908406E-14  -1.50610050678319E-04  -2.83904730219634E-16
      4.16666666666667E-01
     -3.25000000000000E-01  -3.25000000000000E-01   0.00000000000000E+00   0.00000000000000E+00   0.00000000000000E+00
      0.00000000000000E+00   0.00000000000000E+00   2.39224247716344E-16   0.00000000000000E+00   0.00000000000000E+00
      0.00000000000000E+00   0.00000000000000E+00   1.76047824192409E-04  -2.52778046018619E-12   1.76047821664629E-04
      7.54656267604145E-18  -7.80000000000000E-01  -7.80000000000000E-01   0.00000000000000E+00   0.00000000000000E+00
     -1.76047824231933E-04   1.74534052828449E-14  -1.76047824214480E-04  -2.79481238474943E-16
      4.33333333333333E-01
     -3.38000000000000E-01  -3.38000000000000E-01   0.00000000000000E+00   0.00000000000000E+00   0.00000000000000E+00
      0.00000000000000E+00   0.00000000000000E+00   2.25511866748664E-16   0.00000000000000E+00   0.00000000000000E+00
      0.00000000000000E+00   0.00000000000000E+00   2.03428280936384E-04  -1.63566883743729E-12   2.03428279300716E-04
      1.21848445405105E-17  -7.80000000000000E-01  -7.80000000000000E-01   0.00000000000000E+00   0.00000000000000E+00
     -2.03428280993173E-04   1.61733297238887E-14  -2.03428280976999E-04  -2.75057921081516E-16
      4.50000000000000E-01
     -3.51000000000000E-01  -3.51000000000000E-01   0.00000000000000E+00   0.00000000000000E+00   0.00000000000000E+00
      0.00000000000000E+00   0.00000000000000E+00   2.11513499521044E-16   0.00000000000000E+00   0.00000000000000E+00
      0.00000000000000E+00   0.00000000000000E+00   2.32621999660391E-04  -1.14363146568501E-12   2.32621998516760E-04
      1.67969530681639E-17  -7.80000000000000E-01  -7.80000000000000E-01   0.00000000000000E+00   0.00000000000000E+00
     -2.32621999683737E-04   7.08643170352762E-15  -2.32621999676651E-04  -2.70634356872387E-16
      4.66666666666667E-01
     -3.64000000000000E-01  -3.64000000000000E-01   0.00000000000000E+00   0.00000000000000E+00   0.00000000000000E+00
      0.00000000000000E+00   0.00000000000000E+00   1.97245042423576E-16   0.00000000000000E+00   0.00000000000000E+00
      0.00000000000000E+00   0.00000000000000E+00   2.63509677230433E-04  -8.00697681879193E-13   2.63509676429735E-04
      2.13851662012218E-17  -7.80000000000000E-01  -7.80000000000000E-01   0.00000000000000E+00   0.00000000000000E+00
     -2.63509677209670E-04  -3.34347138293711E-15  -2.63509677213013E-04  -2.66210066619887E-16
      4.83333333333333E-01
     -3.77000000000000E-01  -3.77000000000000E-01   0.00000000000000E+00   0.00000000000000E+00   0.00000000000000E+00
      0.00000000000000E+00   0.00000000000000E+00   1.82719814845138E-16   0.00000000000000E+00   0.00000000000000E+00
      0.00000000000000E+00   0.00000000000000E+00   2.95968223040082E-04  -5.87545068534959E-13   2.95968222452537E-04
      2.59515748278178E-17  -7.80000000000000E-01  -7.80000000000000E-01   0.00000000000000E+00   0.00000000000000E+00
     -2.95968223030330E-04   9.91901205666831E-15  -2.95968223020411E-04  -2.61784682117416E-16
      5.00000000000000E-01
     -3.90000000000000E-01  -3.90000000000000E-01   0.00000000000000E+00   0.00000000000000E+00   0.00000000000000E+00
      0.00000000000000E+00   0.00000000000000E+00   1.67953188666007E-16   0.00000000000000E+00   0.00000000000000E+00
      0.00000000000000E+00   0.00000000000000E+00   3.29889231767434E-04  -3.81139400509925E-13   3.29889231386294E-04
      3.04980835697754E-17  -7.80000000000000E-01  -7.80000000000000E-01   0.00000000000000E+00   0.00000000000000E+00
     -3.29889231793804E-04   4.16885643381285E-15  -3.29889231789635E-04  -2.57357721267746E-16
      5.16666666666667E-01
     -4.03000000000000E-01  -4.03000000000000E-01   0.00000000000000E+00   0.00000000000000E+00   0.00000000000000E+00
      0.00000000000000E+00   0.00000000000000E+00   1.52956499229024E-16   0.00000000000000E+00   0.00000000000000E+00
      0.00000000000000E+00   0.00000000000000E+00   3.65161184335762E-04  -3.13366372303375E-13   3.65161184022396E-04
      3.50264643958228E-17  -7.80000000000000E-01  -7.80000000000000E-01   0.00000000000000E+00   0.00000000000000E+00
     -3.65161184351433E-04   1.62451316704068E-14  -3.65161184335188E-04  -2.52928937491290E-16
      5.33333333333333E-01
     -4.16000000000000E-01  -4.16000000000000E-01   0.00000000000000E+00   0.00000000000000E+00   0.00000000000000E+00
      0.00000000000000E+00   0.00000000000000E+00   1.37742790730912E-16   0.00000000000000E+00   0.00000000000000E+00
      0.00000000000000E+00   0.00000000000000E+00   4.01686374558136E-04  -2.18806317521473E-13   4.01686374339329E-04
      3.95383552844775E-17  -7.80000000000000E-01  -7.80000000000000E-01   0.00000000000000E+00   0.00000000000000E+00
     -4.01686374555547E-04  -6.64964799454800E-15  -4.01686374562197E-04  -2.48497959139536E-16
      5.50000000000000E-01
     -4.29000000000000E-01  -4.29000000000000E-01   0.00000000000000E+00   0.00000000000000E+00   0.00000000000000E+00
      0.00000000000000E+00   0.00000000000000E+00   1.22324084665046E-16   0.00000000000000E+00   0.00000000000000E+00
      0.00000000000000E+00   0.00000000000000E+00   4.39373326786356E-04  -1.62282590380611E-13   4.39373326624074E-04
      4.40353054295236E-17  -7.80000000000000E-01  -7.80000000000000E-01   0.00000000000000E+00   0.00000000000000E+00
     -4.39373326774721E-04  -1.38571337478227E-14  -4.39373326788578E-04  -2.44064453961125E-16
      5.66666666666667E-01
     -4.42000000000000E-01  -4.42000000000000E-01   0.00000000000000E+00   0.00000000000000E+00   0.00000000000000E+00
      0.00000000000000E+00   0.00000000000000E+00   1.06711665879907E-16   0.00000000000000E+00   0.00000000000000E+00
      0.00000000000000E+00   0.00000000000000E+00   4.78135122483698E-04  -1.35098190892413E-13   4.78135122348600E-04
      4.85187037930721E-17  -7.80000000000000E-01  -7.80000000000000E-01   0.00000000000000E+00   0.00000000000000E+00
     -4.78135122460190E-04  -1.39809311531688E-14  -4.78135122474171E-04  -2.39628139043623E-16
      5.83333333333333E-01
     -4.55000000000000E-01  -4.55000000000000E-01   0.00000000000000E+00   0.00000000000000E+00   0.00000000000000E+00
      0.00000000000000E+00   0.00000000000000E+00   9.09156556075142E-17   0.00000000000000E+00   0.00000000000000E+00
      0.00000000000000E+00   0.00000000000000E+00   5.17892204597525E-04  -1.08843603584427E-13   5.17892204488682E-04
      5.29899504822721E-17  -7.80000000000000E-01  -7.80000000000000E-01   0.00000000000000E+00   0.00000000000000E+00
     -5.17892204565054E-04  -2.01745875254908E-14  -5.17892204585228E-04  -2.35188778786632E-16
      6.00000000000000E-01
     -4.68000000000000E-01  -4.68000000000000E-01   0.00000000000000E+00   0.00000000000000E+00   0.00000000000000E+00
      0.00000000000000E+00   0.00000000000000E+00   7.49459636366603E-17   0.00000000000000E+00   0.00000000000000E+00
      0.00000000000000E+00   0.00000000000000E+00   5.58569213870992E-04  -7.58953887656695E-14   5.58569213795097E-04
      5.74502699129602E-17  -7.80000000000000E-01  -7.80000000000000E-01   0.00000000000000E+00   0.00000000000000E+00
     -5.58569213865544E-04  -5.31993145805679E-15  -5.58569213870864E-04  -2.30746160037212E-16
      6.16666666666667E-01
     -4.81000000000000E-01  -4.81000000000000E-01   0.00000000000000E+00   0.00000000000000E+00   0.00000000000000E+00
      0.00000000000000E+00   0.00000000000000E+00   5.88119802462209E-17   0.00000000000000E+00   0.00000000000000E+00
      0.00000000000000E+00   0.00000000000000E+00   6.00095249785445E-04  -5.40962153416978E-14   6.00095249731349E-04
      6.19007797735694E-17  -7.80000000000000E-01  -7.80000000000000E-01   0.00000000000000E+00   0.00000000000000E+00
     -6.00095249789407E-04  -4.97042857411438E-15  -6.00095249794378E-04  -2.26300102993592E-16
      6.33333333333334E-01
     -4.94000000000000E-01  -4.94000000000000E-01   0.00000000000000E+00   0.00000000000000E+00   0.00000000000000E+00
      0.00000000000000E+00   0.00000000000000E+00   4.25225144548206E-17   0.00000000000000E+00   0.00000000000000E+00
      0.00000000000000E+00   0.00000000000000E+00   6.42406214124800E-04  -4.09376715007274E-14   6.42406214083862E-04
      6.63425995441893E-17  -7.80000000000000E-01  -7.80000000000000E-01   0.00000000000000E+00   0.00000000000000E+00
     -6.42406214124294E-04  -8.25124208679132E-15  -6.42406214132545E-04  -2.21850427269573E-16
      6.50000000000000E-01
     -5.07000000000000E-01  -5.07000000000000E-01   0.00000000000000E+00   0.00000000000000E+00   0.00000000000000E+00
      0.00000000000000E+00   0.00000000000000E+00   2.60860196760730E-17   0.00000000000000E+00   0.00000000000000E+00
      0.00000000000000E+00   0.00000000000000E+00   6.85441730459994E-04  -3.69570496968538E-14   6.85441730423037E-04
      7.07767361154995E-17  -7.80000000000000E-01  -7.80000000000000E-01   0.00000000000000E+00   0.00000000000000E+00
     -6.85441730457650E-04  -6.44459134343542E-15  -6.85441730464094E-04  -2.17396967663704E-16
      6.66666666666667E-01
     -5.20000000000000E-01  -5.20000000000000E-01   0.00000000000000E+00   0.00000000000000E+00   0.00000000000000E+00
      0.00000000000000E+00   0.00000000000000E+00   9.51052616137628E-18   0.00000000000000E+00   0.00000000000000E+00
      0.00000000000000E+00   0.00000000000000E+00   7.29145388730592E-04  -2.80656859947698E-14   7.29145388702527E-04
      7.52041174786820E-17  -7.80000000000000E-01  -7.80000000000000E-01   0.00000000000000E+00   0.00000000000000E+00
     -7.29145388730009E-04  -5.86081270438267E-15  -7.29145388735869E-04  -2.12939576937672E-16
      6.83333333333334E-01
     -5.33000000000000E-01  -5.33000000000000E-01   0.00000000000000E+00   0.00000000000000E+00   0.00000000000000E+00
      0.00000000000000E+00   0.00000000000000E+00  -7.19684548730067E-18   0.00000000000000E+00   0.00000000000000E+00
      0.00000000000000E+00   0.00000000000000E+00   7.73463111193206E-04  -2.81831746997706E-14   7.73463111165023E-04
      7.96255877650096E-17  -7.80000000000000E-01  -7.80000000000000E-01   0.00000000000000E+00   0.00000000000000E+00
     -7.73463111186772E-04  -7.06825724918773E-15  -7.73463111193840E-04  -2.08478208683793E-16
      7.00000000000001E-01
     -5.46000000000000E-01  -5.46000000000000E-01   0.00000000000000E+00   0.00000000000000E+00   0.00000000000000E+00
      0.00000000000000E+00   0.00000000000000E+00  -2.40303094327212E-17   0.00000000000000E+00   0.00000000000000E+00
      0.00000000000000E+00   0.00000000000000E+00   8.18341947814360E-04  -2.00180724746090E-14   8.18341947794342E-04
      8.40419050361100E-17  -7.80000000000000E-01  -7.80000000000000E-01   0.00000000000000E+00   0.00000000000000E+00
     -8.18341947810144E-04  -5.73380166654651E-15  -8.18341947815877E-04  -2.04013060926580E-16
      7.16666666666667E-01
     -5.59000000000000E-01  -5.59000000000000E-01   0.00000000000000E+00   0.00000000000000E+00   0.00000000000000E+00
      0.00000000000000E+00   0.00000000000000E+00  -4.09819391474330E-17   0.00000000000000E+00   0.00000000000000E+00
      0.00000000000000E+00   0.00000000000000E+00   8.63738530739313E-04  -1.97422787466650E-14   8.63738530719571E-04
      8.84538001382593E-17  -7.80000000000000E-01  -7.80000000000000E-01   0.00000000000000E+00   0.00000000000000E+00
     -8.63738530735697E-04  -3.20320411107937E-15  -8.63738530738900E-04  -1.99543871851935E-16
      7.33333333333334E-01
     -5.72000000000001E-01  -5.72000000000001E-01   0.00000000000000E+00   0.00000000000000E+00   0.00000000000000E+00
      0.00000000000000E+00   0.00000000000000E+00  -5.80447545892640E-17   0.00000000000000E+00   0.00000000000000E+00
      0.00000000000000E+00   0.00000000000000E+00   9.09611069433030E-04  -1.70483911447278E-14   9.09611069415981E-04
      9.28619459124137E-17  -7.80000000000000E-01  -7.80000000000000E-01   0.00000000000000E+00   0.00000000000000E+00
     -9.09611069435417E-04   2.01694724347900E-15  -9.09611069433400E-04  -1.95070387275029E-16
      7.50000000000001E-01
     -5.85000000000001E-01  -5.85000000000001E-01   0.00000000000000E+00   0.00000000000000E+00   0.00000000000000E+00
      0.00000000000000E+00   0.00000000000000E+00  -7.52148070189595E-17   0.00000000000000E+00   0.00000000000000E+00
      0.00000000000000E+00   0.00000000000000E+00   9.55915013653232E-04  -1.43911205491148E-14   9.55915013638841E-04
      9.72669458912952E-17  -7.80000000000000E-01  -7.80000000000000E-01   0.00000000000000E+00   0.00000000000000E+00
     -9.55915013654162E-04   2.16463099868802E-15  -9.55915013651997E-04  -1.90592991546071E-16
      7.66666666666667E-01
     -5.98000000000001E-01  -5.98000000000001E-01   0.00000000000000E+00   0.00000000000000E+00   0.00000000000000E+00
      0.00000000000000E+00   0.00000000000000E+00  -9.24874644983249E-17   0.00000000000000E+00   0.00000000000000E+00
      0.00000000000000E+00   0.00000000000000E+00   1.00261165402371E-03  -1.17816792811130E-14   1.00261165401193E-03
      1.01669375933563E-16  -7.80000000000000E-01  -7.80000000000000E-01   0.00000000000000E+00   0.00000000000000E+00
     -1.00261165402570E-03   3.40155920589243E-15  -1.00261165402229E-03  -1.86112063520773E-16
      7.83333333333334E-01
     -6.11000000000001E-01  -6.11000000000001E-01   0.00000000000000E+00   0.00000000000000E+00   0.00000000000000E+00
      0.00000000000000E+00   0.00000000000000E+00  -1.09855202110351E-16   0.00000000000000E+00   0.00000000000000E+00
      0.00000000000000E+00   0.00000000000000E+00   1.04967034012770E-03  -1.04682662667204E-14   1.04967034011723E-03
      1.06069756291378E-16  -7.80000000000000E-01  -7.80000000000000E-01   0.00000000000000E+00   0.00000000000000E+00
     -1.04967034012819E-03  -7.70647121259474E-16  -1.04967034012896E-03  -1.81626875880795E-16
      8.00000000000001E-01
     -6.24000000000001E-01  -6.24000000000001E-01   0.00000000000000E+00   0.00000000000000E+00   0.00000000000000E+00
      0.00000000000000E+00   0.00000000000000E+00  -1.27315027861314E-16   0.00000000000000E+00   0.00000000000000E+00