DF-ISE text

Info {
  version   = 1.0
  type      = xyplot
  datasets  = [
    "time"
    "gate OuterVoltage" "gate InnerVoltage" "gate QuasiFermiPotential" "gate DisplacementCurrent" "gate eCurrent"
    "gate hCurrent" "gate TotalCurrent" "gate Charge" "source OuterVoltage" "source InnerVoltage"
    "source QuasiFermiPotential" "source DisplacementCurrent" "source eCurrent" "source hCurrent" "source TotalCurrent"
    "source Charge" "drain OuterVoltage" "drain InnerVoltage" "drain QuasiFermiPotential" "drain DisplacementCurrent"
    "drain eCurrent" "drain hCurrent" "drain TotalCurrent" "drain Charge" ]
  functions = [
    Time
    OuterVoltage InnerVoltage QuasiFermiPotential DisplacementCurrent eCurrent
    hCurrent TotalCurrent Charge OuterVoltage InnerVoltage
    QuasiFermiPotential DisplacementCurrent eCurrent hCurrent TotalCurrent
    Charge OuterVoltage InnerVoltage QuasiFermiPotential DisplacementCurrent
    eCurrent hCurrent TotalCurrent Charge ]
}

Data {
      0.00000000000000E+00
      0.00000000000000E+00   0.00000000000000E+00   0.00000000000000E+00   0.00000000000000E+00   0.00000000000000E+00
      0.00000000000000E+00   0.00000000000000E+00  -4.54912319218071E-16   0.00000000000000E+00   0.00000000000000E+00
      0.00000000000000E+00   0.00000000000000E+00  -1.94951188763559E-08   1.27243991167754E-24  -1.94951188763559E-08
      1.20957165924316E-16   6.00000000000000E-01   6.00000000000000E-01   0.00000000000000E+00   0.00000000000000E+00
      1.94963167035705E-08  -8.66833959082925E-24   1.94963167035704E-08   3.35344249198075E-16
      1.66666666666667E-02
      1.66666666666667E-03   1.66666666666667E-03   0.00000000000000E+00   0.00000000000000E+00   0.00000000000000E+00
      0.00000000000000E+00   0.00000000000000E+00  -4.53713611318146E-16   0.00000000000000E+00   0.00000000000000E+00
      0.00000000000000E+00   0.00000000000000E+00  -2.06730128911231E-08   1.21717881119895E-22  -2.06730128911229E-08
      1.20336381096337E-16   6.00000000000000E-01   6.00000000000000E-01   0.00000000000000E+00   0.00000000000000E+00
      2.06718321944664E-08  -5.45819237394636E-23   2.06718321944664E-08   3.34770663498210E-16
      3.33333333333333E-02
      3.33333333333333E-03   3.33333333333333E-03   0.00000000000000E+00   0.00000000000000E+00   0.00000000000000E+00
      0.00000000000000E+00   0.00000000000000E+00  -4.52514528750594E-16   0.00000000000000E+00   0.00000000000000E+00
      0.00000000000000E+00   0.00000000000000E+00  -2.19218476310877E-08   1.27623082678360E-22  -2.19218476310876E-08
      1.19715406038402E-16   6.00000000000000E-01   6.00000000000000E-01   0.00000000000000E+00   0.00000000000000E+00
      2.19205436542355E-08  -6.70790632580532E-23   2.19205436542354E-08   3.34196986271738E-16
      5.00000000000000E-02
      5.00000000000000E-03   5.00000000000000E-03   0.00000000000000E+00   0.00000000000000E+00   0.00000000000000E+00
      0.00000000000000E+00   0.00000000000000E+00  -4.51315069097499E-16   0.00000000000000E+00   0.00000000000000E+00
      0.00000000000000E+00   0.00000000000000E+00  -2.32455912463433E-08   6.37547454934606E-20  -2.32455912462796E-08
      1.19094240696053E-16   6.00000000000000E-01   6.00000000000000E-01   0.00000000000000E+00   0.00000000000000E+00
      2.32458450230190E-08  -4.48939918347577E-21   2.32458450230145E-08   3.33623217585994E-16
      6.66666666666667E-02
      6.66666666666667E-03   6.66666666666667E-03   0.00000000000000E+00   0.00000000000000E+00   0.00000000000000E+00
      0.00000000000000E+00   0.00000000000000E+00  -4.50115228870202E-16   0.00000000000000E+00   0.00000000000000E+00
      0.00000000000000E+00   0.00000000000000E+00  -2.46493222118715E-08   4.32957396953849E-20  -2.46493222118282E-08
      1.18472885032360E-16   6.00000000000000E-01   6.00000000000000E-01   0.00000000000000E+00   0.00000000000000E+00
      2.46494371950177E-08  -2.90852227254678E-21   2.46494371950148E-08   3.33049356405789E-16
      8.33333333333333E-02
      8.33333333333333E-03   8.33333333333333E-03   0.00000000000000E+00   0.00000000000000E+00   0.00000000000000E+00
      0.00000000000000E+00   0.00000000000000E+00  -4.48915005954990E-16   0.00000000000000E+00   0.00000000000000E+00
      0.00000000000000E+00   0.00000000000000E+00  -2.61374635243839E-08   3.55198826182724E-20  -2.61374635243484E-08
      1.17851339024440E-16   6.00000000000000E-01   6.00000000000000E-01   0.00000000000000E+00   0.00000000000000E+00
      2.61378718218066E-08  -2.12472677392950E-21   2.61378718218044E-08   3.32475403150446E-16
      1.00000000000000E-01
      1.00000000000000E-02   1.00000000000000E-02   0.00000000000000E+00   0.00000000000000E+00   0.00000000000000E+00
      0.00000000000000E+00   0.00000000000000E+00  -4.47714397612563E-16   0.00000000000000E+00   0.00000000000000E+00
      0.00000000000000E+00   0.00000000000000E+00  -2.77150832975088E-08   3.36152854129993E-20  -2.77150832974752E-08
      1.17229602667330E-16   6.00000000000000E-01   6.00000000000000E-01   0.00000000000000E+00   0.00000000000000E+00
      2.77161058391013E-08  -1.68634359250735E-21   2.77161058390997E-08   3.31901357673470E-16
      1.16666666666667E-01
      1.16666666666667E-02   1.16666666666667E-02   0.00000000000000E+00   0.00000000000000E+00   0.00000000000000E+00
      0.00000000000000E+00   0.00000000000000E+00  -4.46513401022189E-16   0.00000000000000E+00   0.00000000000000E+00
      0.00000000000000E+00   0.00000000000000E+00  -2.93875560363745E-08   3.01058687651410E-20  -2.93875560363444E-08
      1.16607675973431E-16   6.00000000000000E-01   6.00000000000000E-01   0.00000000000000E+00   0.00000000000000E+00
      2.93890953414269E-08  -1.33762650609150E-21   2.93890953414255E-08   3.31327219809837E-16
      1.33333333333333E-01
      1.33333333333333E-02   1.33333333333333E-02   0.00000000000000E+00   0.00000000000000E+00   0.00000000000000E+00
      0.00000000000000E+00   0.00000000000000E+00  -4.45312013342187E-16   0.00000000000000E+00   0.00000000000000E+00
      0.00000000000000E+00   0.00000000000000E+00  -3.11605550191485E-08   2.76413484949448E-20  -3.11605550191209E-08
      1.15985558973271E-16   6.00000000000000E-01   6.00000000000000E-01   0.00000000000000E+00   0.00000000000000E+00
      3.11623518875932E-08  -1.08151830986188E-21   3.11623518875922E-08   3.30752989436542E-16
      1.50000000000000E-01
      1.50000000000000E-02   1.50000000000000E-02   0.00000000000000E+00   0.00000000000000E+00   0.00000000000000E+00
      0.00000000000000E+00   0.00000000000000E+00  -4.44110231680088E-16   0.00000000000000E+00   0.00000000000000E+00
      0.00000000000000E+00   0.00000000000000E+00  -3.30400917530266E-08   2.54571436921840E-20  -3.30400917530011E-08
      1.15363251716385E-16   6.00000000000000E-01   6.00000000000000E-01   0.00000000000000E+00   0.00000000000000E+00
      3.30419184295554E-08  -9.09041397483037E-22   3.30419184295545E-08   3.30178666443897E-16
      1.66666666666667E-01
      1.66666666666667E-02   1.66666666666667E-02   0.00000000000000E+00   0.00000000000000E+00   0.00000000000000E+00
      0.00000000000000E+00   0.00000000000000E+00  -4.42908053036299E-16   0.00000000000000E+00   0.00000000000000E+00
      0.00000000000000E+00   0.00000000000000E+00  -3.50325354594682E-08   2.37235995943218E-20  -3.50325354594444E-08
      1.14740754272357E-16   6.00000000000000E-01   6.00000000000000E-01   0.00000000000000E+00   0.00000000000000E+00
      3.50343187806169E-08  -8.09677529024324E-22   3.50343187806161E-08   3.29604250684005E-16
      1.83333333333333E-01
      1.83333333333333E-02   1.83333333333333E-02   0.00000000000000E+00   0.00000000000000E+00   0.00000000000000E+00
      0.00000000000000E+00   0.00000000000000E+00  -4.41705474463832E-16   0.00000000000000E+00   0.00000000000000E+00
      0.00000000000000E+00   0.00000000000000E+00  -3.71446330080880E-08   2.13126845404647E-20  -3.71446330080667E-08
      1.14118066730862E-16   6.00000000000000E-01   6.00000000000000E-01   0.00000000000000E+00   0.00000000000000E+00
      3.71464717962879E-08  -7.71848224019692E-22   3.71464717962871E-08   3.29029742135122E-16
      2.00000000000000E-01
      2.00000000000000E-02   2.00000000000000E-02   0.00000000000000E+00   0.00000000000000E+00   0.00000000000000E+00
      0.00000000000000E+00   0.00000000000000E+00  -4.40502492800910E-16   0.00000000000000E+00   0.00000000000000E+00
      0.00000000000000E+00   0.00000000000000E+00  -3.93835308071002E-08   1.95365015267097E-20  -3.93835308070806E-08
      1.13495189202118E-16   6.00000000000000E-01   6.00000000000000E-01   0.00000000000000E+00   0.00000000000000E+00
      3.93856350802847E-08  -7.80195426701842E-22   3.93856350802839E-08   3.28455140640644E-16
      2.16666666666667E-01
      2.16666666666667E-02   2.16666666666667E-02   0.00000000000000E+00   0.00000000000000E+00   0.00000000000000E+00
      0.00000000000000E+00   0.00000000000000E+00  -4.39299104803619E-16   0.00000000000000E+00   0.00000000000000E+00
      0.00000000000000E+00   0.00000000000000E+00  -4.17567979910895E-08   1.78747163080174E-20  -4.17567979910716E-08
      1.12872121818493E-16   6.00000000000000E-01   6.00000000000000E-01   0.00000000000000E+00   0.00000000000000E+00
      4.17594083992658E-08  -8.19425691027114E-22   4.17594083992649E-08   3.27880446044150E-16
      2.33333333333333E-01
      2.33333333333333E-02   2.33333333333333E-02   0.00000000000000E+00   0.00000000000000E+00   0.00000000000000E+00
      0.00000000000000E+00   0.00000000000000E+00  -4.38095307233666E-16   0.00000000000000E+00   0.00000000000000E+00
      0.00000000000000E+00   0.00000000000000E+00  -4.42724516532386E-08   1.65321391705655E-20  -4.42724516532221E-08
      1.12248864734710E-16   6.00000000000000E-01   6.00000000000000E-01   0.00000000000000E+00   0.00000000000000E+00
      4.42758002720865E-08  -8.73366785016331E-22   4.42758002720856E-08   3.27305658281649E-16
      2.50000000000000E-01
      2.50000000000000E-02   2.50000000000000E-02   0.00000000000000E+00   0.00000000000000E+00   0.00000000000000E+00
      0.00000000000000E+00   0.00000000000000E+00  -4.36891096676543E-16   0.00000000000000E+00   0.00000000000000E+00
      0.00000000000000E+00   0.00000000000000E+00  -4.69389836793468E-08   1.51086194168876E-20  -4.69389836793317E-08
      1.11625418129926E-16   6.00000000000000E-01   6.00000000000000E-01   0.00000000000000E+00   0.00000000000000E+00
      4.69433281287351E-08  -9.29150737407663E-22   4.69433281287341E-08   3.26730777202964E-16
      2.66666666666667E-01
      2.66666666666667E-02   2.66666666666667E-02   0.00000000000000E+00   0.00000000000000E+00   0.00000000000000E+00
      0.00000000000000E+00   0.00000000000000E+00  -4.35686469628169E-16   0.00000000000000E+00   0.00000000000000E+00
      0.00000000000000E+00   0.00000000000000E+00  -4.97653887862055E-08   1.39572561406703E-20  -4.97653887861915E-08
      1.11001782206412E-16   6.00000000000000E-01   6.00000000000000E-01   0.00000000000000E+00   0.00000000000000E+00
      4.97711158588330E-08  -9.71161974938871E-22   4.97711158588321E-08   3.26155802668226E-16
      2.83333333333333E-01
      2.83333333333333E-02   2.83333333333333E-02   0.00000000000000E+00   0.00000000000000E+00   0.00000000000000E+00
      0.00000000000000E+00   0.00000000000000E+00  -4.34481422475120E-16   0.00000000000000E+00   0.00000000000000E+00
      0.00000000000000E+00   0.00000000000000E+00  -5.27611910839030E-08   1.31902527111644E-20  -5.27611910838898E-08
      1.10377957192270E-16   6.00000000000000E-01   6.00000000000000E-01   0.00000000000000E+00   0.00000000000000E+00
      5.27689801823988E-08  -9.94161270769365E-22   5.27689801823978E-08   3.25580734535592E-16
      3.00000000000000E-01
      3.00000000000000E-02   3.00000000000000E-02   0.00000000000000E+00   0.00000000000000E+00   0.00000000000000E+00
      0.00000000000000E+00   0.00000000000000E+00  -4.33275951444331E-16   0.00000000000000E+00   0.00000000000000E+00
      0.00000000000000E+00   0.00000000000000E+00  -5.59364802757249E-08   1.21805699961535E-20  -5.59364802757127E-08
      1.09753943341998E-16   6.00000000000000E-01   6.00000000000000E-01   0.00000000000000E+00   0.00000000000000E+00
      5.59475076327114E-08  -9.92428287762936E-22   5.59475076327104E-08   3.25005572622922E-16
      3.16666666666667E-01
      3.16666666666667E-02   3.16666666666667E-02   0.00000000000000E+00   0.00000000000000E+00   0.00000000000000E+00
      0.00000000000000E+00   0.00000000000000E+00  -4.32070052667994E-16   0.00000000000000E+00   0.00000000000000E+00
      0.00000000000000E+00   0.00000000000000E+00  -5.93019354689558E-08   1.17112436406422E-20  -5.93019354689441E-08
      1.09129740937562E-16   6.00000000000000E-01   6.00000000000000E-01   0.00000000000000E+00   0.00000000000000E+00
      5.93181138034630E-08  -9.62982440470619E-22   5.93181138034620E-08   3.24430316790072E-16
      3.33333333333333E-01
      3.33333333333333E-02   3.33333333333333E-02   0.00000000000000E+00   0.00000000000000E+00   0.00000000000000E+00
      0.00000000000000E+00   0.00000000000000E+00  -4.30863721177275E-16   0.00000000000000E+00   0.00000000000000E+00
      0.00000000000000E+00   0.00000000000000E+00  -6.28690926693345E-08   2.80095410040592E-23  -6.28690926693344E-08
      1.08505350289706E-16   6.00000000000000E-01   6.00000000000000E-01   0.00000000000000E+00   0.00000000000000E+00
      6.28837111529328E-08  -2.59941126972380E-23   6.28837111529328E-08   3.23854965834902E-16
      3.50000000000000E-01
      3.50000000000000E-02   3.50000000000000E-02   0.00000000000000E+00   0.00000000000000E+00   0.00000000000000E+00
      0.00000000000000E+00   0.00000000000000E+00  -4.29656953423661E-16   0.00000000000000E+00   0.00000000000000E+00
      0.00000000000000E+00   0.00000000000000E+00  -6.66494211710974E-08  -7.96977472555732E-24  -6.66494211710974E-08
      1.07880771737300E-16   6.00000000000000E-01   6.00000000000000E-01   0.00000000000000E+00   0.00000000000000E+00
      6.66668554338516E-08  -2.55418324174067E-23   6.66668554338515E-08   3.23279520480250E-16
      3.66666666666667E-01
      3.66666666666667E-02   3.66666666666667E-02   0.00000000000000E+00   0.00000000000000E+00   0.00000000000000E+00
      0.00000000000000E+00   0.00000000000000E+00  -4.28449744677904E-16   0.00000000000000E+00   0.00000000000000E+00
      0.00000000000000E+00   0.00000000000000E+00  -7.06558302630773E-08  -3.03573074301375E-24  -7.06558302630773E-08
      1.07256005649019E-16   6.00000000000000E-01   6.00000000000000E-01   0.00000000000000E+00   0.00000000000000E+00
      7.06784721493412E-08  -2.01116436734007E-23   7.06784721493412E-08   3.22703980040196E-16
      3.83333333333333E-01
      3.83333333333333E-02   3.83333333333333E-02   0.00000000000000E+00   0.00000000000000E+00   0.00000000000000E+00
      0.00000000000000E+00   0.00000000000000E+00  -4.27242091992199E-16   0.00000000000000E+00   0.00000000000000E+00
      0.00000000000000E+00   0.00000000000000E+00  -7.49015837399239E-08   8.64556923581948E-21  -7.49015837399152E-08
      1.06631052421590E-16   6.00000000000000E-01   6.00000000000000E-01   0.00000000000000E+00   0.00000000000000E+00
      7.49283271150744E-08  -6.55578852510397E-22   7.49283271150738E-08   3.22128345580586E-16
      4.00000000000000E-01
      4.00000000000000E-02   4.00000000000000E-02   0.00000000000000E+00   0.00000000000000E+00   0.00000000000000E+00
      0.00000000000000E+00   0.00000000000000E+00  -4.26033988753481E-16   0.00000000000000E+00   0.00000000000000E+00
      0.00000000000000E+00   0.00000000000000E+00  -7.94015663662469E-08   6.29228132379794E-23  -7.94015663662468E-08
      1.06005912490521E-16   6.00000000000000E-01   6.00000000000000E-01   0.00000000000000E+00   0.00000000000000E+00
      7.94378549152702E-08  -2.44529702001409E-23   7.94378549152702E-08   3.21552614544723E-16
      4.16666666666667E-01
      4.16666666666667E-02   4.16666666666667E-02   0.00000000000000E+00   0.00000000000000E+00   0.00000000000000E+00
      0.00000000000000E+00   0.00000000000000E+00  -4.24825433303220E-16   0.00000000000000E+00   0.00000000000000E+00
      0.00000000000000E+00   0.00000000000000E+00  -8.41699150050982E-08   7.11393262104447E-21  -8.41699150050911E-08
      1.05380586317061E-16   6.00000000000000E-01   6.00000000000000E-01   0.00000000000000E+00   0.00000000000000E+00
      8.42001259908526E-08  -4.74819871237670E-22   8.42001259908521E-08   3.20976789439801E-16
      4.33333333333333E-01
      4.33333333333333E-02   4.33333333333333E-02   0.00000000000000E+00   0.00000000000000E+00   0.00000000000000E+00
      0.00000000000000E+00   0.00000000000000E+00  -4.23616420194138E-16   0.00000000000000E+00   0.00000000000000E+00
      0.00000000000000E+00   0.00000000000000E+00  -8.92233124955966E-08   3.70080913147295E-21  -8.92233124955929E-08
      1.04755074400485E-16   6.00000000000000E-01   6.00000000000000E-01   0.00000000000000E+00   0.00000000000000E+00
      8.92372418987121E-08  -3.90883823474109E-22   8.92372418987117E-08   3.20400869045200E-16
      4.50000000000000E-01
      4.50000000000000E-02   4.50000000000000E-02   0.00000000000000E+00   0.00000000000000E+00   0.00000000000000E+00
      0.00000000000000E+00   0.00000000000000E+00  -4.22406945723916E-16   0.00000000000000E+00   0.00000000000000E+00
      0.00000000000000E+00   0.00000000000000E+00  -9.45784185396909E-08   3.33995393399719E-21  -9.45784185396876E-08
      1.04129377275068E-16   6.00000000000000E-01   6.00000000000000E-01   0.00000000000000E+00   0.00000000000000E+00
      9.45652649231622E-08  -3.10023756317369E-22   9.45652649231619E-08   3.19824854168098E-16
      4.66666666666667E-01
      4.66666666666667E-02   4.66666666666667E-02   0.00000000000000E+00   0.00000000000000E+00   0.00000000000000E+00
      0.00000000000000E+00   0.00000000000000E+00  -4.21197006436178E-16   0.00000000000000E+00   0.00000000000000E+00
      0.00000000000000E+00   0.00000000000000E+00  -1.00253450796582E-07  -1.18411844505871E-23  -1.00253450796582E-07
      1.03503495510125E-16   6.00000000000000E-01   6.00000000000000E-01   0.00000000000000E+00   0.00000000000000E+00
      1.00225624318444E-07   2.12118641572905E-23   1.00225624318444E-07   3.19248745941962E-16
      4.83333333333333E-01
      4.83333333333333E-02   4.83333333333333E-02   0.00000000000000E+00   0.00000000000000E+00   0.00000000000000E+00
      0.00000000000000E+00   0.00000000000000E+00  -4.19986597294916E-16   0.00000000000000E+00   0.00000000000000E+00
      0.00000000000000E+00   0.00000000000000E+00  -1.06266475324492E-07   2.56612012143130E-21  -1.06266475324489E-07
      1.02877429716164E-16   6.00000000000000E-01   6.00000000000000E-01   0.00000000000000E+00   0.00000000000000E+00
      1.06263648976847E-07  -2.25874347536000E-22   1.06263648976847E-07   3.18672544350328E-16
      5.00000000000000E-01
      5.00000000000000E-02   5.00000000000000E-02   0.00000000000000E+00   0.00000000000000E+00   0.00000000000000E+00
      0.00000000000000E+00   0.00000000000000E+00  -4.18775710863786E-16   0.00000000000000E+00   0.00000000000000E+00
      0.00000000000000E+00   0.00000000000000E+00  -1.12638270733091E-07   3.37970231439997E-21  -1.12638270733088E-07
      1.02251180550867E-16   6.00000000000000E-01   6.00000000000000E-01   0.00000000000000E+00   0.00000000000000E+00
      1.12641765726209E-07  -1.98711068499216E-22   1.12641765726209E-07   3.18096247148260E-16
      5.16666666666667E-01
      5.16666666666667E-02   5.16666666666667E-02   0.00000000000000E+00   0.00000000000000E+00   0.00000000000000E+00
      0.00000000000000E+00   0.00000000000000E+00  -4.17564342517746E-16   0.00000000000000E+00   0.00000000000000E+00
      0.00000000000000E+00   0.00000000000000E+00  -1.19389788710501E-07   2.63537821181890E-21  -1.19389788710499E-07
      1.01624748704729E-16   6.00000000000000E-01   6.00000000000000E-01   0.00000000000000E+00   0.00000000000000E+00
      1.19386709508300E-07  -1.71888914677102E-22   1.19386709508299E-07   3.17519854942872E-16
      5.33333333333333E-01
      5.33333333333333E-02   5.33333333333333E-02   0.00000000000000E+00   0.00000000000000E+00   0.00000000000000E+00
      0.00000000000000E+00   0.00000000000000E+00  -4.16352486961774E-16   0.00000000000000E+00   0.00000000000000E+00
      0.00000000000000E+00   0.00000000000000E+00  -1.26543471645697E-07   2.22356082353728E-21  -1.26543471645695E-07
      1.00998134915168E-16   6.00000000000000E-01   6.00000000000000E-01   0.00000000000000E+00   0.00000000000000E+00
      1.26529162802397E-07  -1.48911477016481E-22   1.26529162802397E-07   3.16943367842625E-16
      5.50000000000000E-01
      5.50000000000000E-02   5.50000000000000E-02   0.00000000000000E+00   0.00000000000000E+00   0.00000000000000E+00
      0.00000000000000E+00   0.00000000000000E+00  -4.15140138647206E-16   0.00000000000000E+00   0.00000000000000E+00
      0.00000000000000E+00   0.00000000000000E+00  -1.34123075673568E-07   1.98289886548855E-21  -1.34123075673566E-07
      1.00371339959333E-16   6.00000000000000E-01   6.00000000000000E-01   0.00000000000000E+00   0.00000000000000E+00
      1.34097733407694E-07  -1.31991807615448E-22   1.34097733407694E-07   3.16366785909959E-16
      5.66666666666667E-01
      5.66666666666667E-02   5.66666666666667E-02   0.00000000000000E+00   0.00000000000000E+00   0.00000000000000E+00
      0.00000000000000E+00   0.00000000000000E+00  -4.13927291759672E-16   0.00000000000000E+00   0.00000000000000E+00
      0.00000000000000E+00   0.00000000000000E+00  -1.42153734053097E-07   1.77239314193072E-21  -1.42153734053095E-07
      9.97443646630375E-17   6.00000000000000E-01   6.00000000000000E-01   0.00000000000000E+00   0.00000000000000E+00
      1.42120305092905E-07  -1.21444096860348E-22   1.42120305092905E-07   3.15790109138734E-16
      5.83333333333333E-01
      5.83333333333333E-02   5.83333333333333E-02   0.00000000000000E+00   0.00000000000000E+00   0.00000000000000E+00
      0.00000000000000E+00   0.00000000000000E+00  -4.12713940204476E-16   0.00000000000000E+00   0.00000000000000E+00
      0.00000000000000E+00   0.00000000000000E+00  -1.50662036617381E-07   1.60024887310151E-21  -1.50662036617380E-07
      9.91172099023377E-17   6.00000000000000E-01   6.00000000000000E-01   0.00000000000000E+00   0.00000000000000E+00
      1.50623733138265E-07  -1.15567907983896E-22   1.50623733138265E-07   3.15213337446571E-16
      6.00000000000000E-01
      6.00000000000000E-02   6.00000000000000E-02   0.00000000000000E+00   0.00000000000000E+00   0.00000000000000E+00
      0.00000000000000E+00   0.00000000000000E+00  -4.11500077619257E-16   0.00000000000000E+00   0.00000000000000E+00
      0.00000000000000E+00   0.00000000000000E+00  -1.59676133464173E-07   1.47579179482338E-21  -1.59676133464172E-07
      9.84898765975087E-17   6.00000000000000E-01   6.00000000000000E-01   0.00000000000000E+00   0.00000000000000E+00
      1.59633839303094E-07  -1.11475286220127E-22   1.59633839303094E-07   3.14636470706545E-16
      6.16666666666667E-01
      6.16666666666667E-02   6.16666666666667E-02   0.00000000000000E+00   0.00000000000000E+00   0.00000000000000E+00
      0.00000000000000E+00   0.00000000000000E+00  -4.10285697423503E-16   0.00000000000000E+00   0.00000000000000E+00
      0.00000000000000E+00   0.00000000000000E+00  -1.69225790356673E-07   1.36391015937159E-21  -1.69225790356672E-07
      9.78623657227916E-17   6.00000000000000E-01   6.00000000000000E-01   0.00000000000000E+00   0.00000000000000E+00
      1.69176671513139E-07  -1.06902450056804E-22   1.69176671513139E-07   3.14059508792928E-16
      6.33333333333334E-01
      6.33333333333334E-02   6.33333333333334E-02   0.00000000000000E+00   0.00000000000000E+00   0.00000000000000E+00
      0.00000000000000E+00   0.00000000000000E+00  -4.09070792844268E-16   0.00000000000000E+00   0.00000000000000E+00
      0.00000000000000E+00   0.00000000000000E+00  -1.79342511113096E-07   1.22855826235052E-21  -1.79342511113095E-07
      9.72346783060250E-17   6.00000000000000E-01   6.00000000000000E-01   0.00000000000000E+00   0.00000000000000E+00
      1.79280088966291E-07  -1.00779384014093E-22   1.79280088966291E-07   3.13482451615308E-16
      6.50000000000000E-01
      6.50000000000000E-02   6.50000000000000E-02   0.00000000000000E+00   0.00000000000000E+00   0.00000000000000E+00
      0.00000000000000E+00   0.00000000000000E+00  -4.07855356907637E-16   0.00000000000000E+00   0.00000000000000E+00
      0.00000000000000E+00   0.00000000000000E+00  -1.90059633600564E-07   1.11984651330995E-21  -1.90059633600562E-07
      9.66068154294743E-17   6.00000000000000E-01   6.00000000000000E-01   0.00000000000000E+00   0.00000000000000E+00
      1.89974711886249E-07  -9.35325907586815E-23   1.89974711886248E-07   3.12905299125524E-16
      6.66666666666667E-01
      6.66666666666667E-02   6.66666666666667E-02   0.00000000000000E+00   0.00000000000000E+00   0.00000000000000E+00
      0.00000000000000E+00   0.00000000000000E+00  -4.06639382406469E-16   0.00000000000000E+00   0.00000000000000E+00
      0.00000000000000E+00   0.00000000000000E+00  -2.01412413517334E-07   1.03739980705627E-21  -2.01412413517332E-07
      9.59787782301306E-17   6.00000000000000E-01   6.00000000000000E-01   0.00000000000000E+00   0.00000000000000E+00
      2.01293615218524E-07  -8.56646532791403E-23   2.01293615218524E-07   3.12328051300962E-16
      6.83333333333334E-01
      6.83333333333334E-02   6.83333333333334E-02   0.00000000000000E+00   0.00000000000000E+00   0.00000000000000E+00
      0.00000000000000E+00   0.00000000000000E+00  -4.05422861822469E-16   0.00000000000000E+00   0.00000000000000E+00
      0.00000000000000E+00   0.00000000000000E+00  -2.13438157509792E-07   9.56965353283017E-22  -2.13438157509791E-07
      9.53505679059393E-17   6.00000000000000E-01   6.00000000000000E-01   0.00000000000000E+00   0.00000000000000E+00
      2.13271076925512E-07  -7.85329479141476E-23   2.13271076925512E-07   3.11750708075198E-16
      7.00000000000001E-01
      7.00000000000000E-02   7.00000000000000E-02   0.00000000000000E+00   0.00000000000000E+00   0.00000000000000E+00
      0.00000000000000E+00   0.00000000000000E+00  -4.04205787414904E-16   0.00000000000000E+00   0.00000000000000E+00
      0.00000000000000E+00   0.00000000000000E+00  -2.26176313250642E-07   9.02308868781047E-22  -2.26176313250641E-07
      9.47221857159627E-17   6.00000000000000E-01   6.00000000000000E-01   0.00000000000000E+00   0.00000000000000E+00
      2.25940679579280E-07  -7.28480669633737E-23   2.25940679579280E-07   3.11173269449178E-16
      7.16666666666667E-01
      7.16666666666667E-02   7.16666666666667E-02   0.00000000000000E+00   0.00000000000000E+00   0.00000000000000E+00
      0.00000000000000E+00   0.00000000000000E+00  -4.02988151047783E-16   0.00000000000000E+00   0.00000000000000E+00
      0.00000000000000E+00   0.00000000000000E+00  -2.39668613082449E-07   8.66013968983000E-22  -2.39668613082448E-07
      9.40936329793903E-17   6.00000000000000E-01   6.00000000000000E-01   0.00000000000000E+00   0.00000000000000E+00
      2.39333144122057E-07  -6.89545430428800E-23   2.39333144122056E-07   3.10595735349628E-16
      7.33333333333334E-01
      7.33333333333334E-02   7.33333333333334E-02   0.00000000000000E+00   0.00000000000000E+00   0.00000000000000E+00
      0.00000000000000E+00   0.00000000000000E+00  -4.01769944267411E-16   0.00000000000000E+00   0.00000000000000E+00
      0.00000000000000E+00   0.00000000000000E+00  -2.53959184967851E-07   8.41877014944440E-22  -2.53959184967850E-07
      9.34649110831803E-17   6.00000000000000E-01   6.00000000000000E-01   0.00000000000000E+00   0.00000000000000E+00
      2.53473744436140E-07  -6.76820331977289E-23   2.53473744436140E-07   3.10018105720488E-16
      7.50000000000001E-01
      7.50000000000001E-02   7.50000000000001E-02   0.00000000000000E+00   0.00000000000000E+00   0.00000000000000E+00
      0.00000000000000E+00   0.00000000000000E+00  -4.00551158113658E-16   0.00000000000000E+00   0.00000000000000E+00
      0.00000000000000E+00   0.00000000000000E+00  -2.69094694619601E-07   8.42155129339059E-22  -2.69094694619601E-07
      9.28360214839932E-17   6.00000000000000E-01   6.00000000000000E-01   0.00000000000000E+00   0.00000000000000E+00
      2.68378755161300E-07  -7.00130450939123E-23   2.68378755161300E-07   3.09440380372673E-16
      7.66666666666667E-01
      7.66666666666667E-02   7.66666666666667E-02   0.00000000000000E+00   0.00000000000000E+00   0.00000000000000E+00
      0.00000000000000E+00   0.00000000000000E+00  -3.99331783107153E-16   0.00000000000000E+00   0.00000000000000E+00
      0.00000000000000E+00   0.00000000000000E+00  -2.85124475524974E-07   8.46349461186448E-22  -2.85124475524973E-07
      9.22069657075586E-17   6.00000000000000E-01   6.00000000000000E-01   0.00000000000000E+00   0.00000000000000E+00
      2.84057120601495E-07  -7.76892280753705E-23   2.84057120601495E-07   3.08862559014431E-16
      7.83333333333334E-01
      7.83333333333334E-02   7.83333333333334E-02   0.00000000000000E+00   0.00000000000000E+00   0.00000000000000E+00
      0.00000000000000E+00   0.00000000000000E+00  -3.98111809273997E-16   0.00000000000000E+00   0.00000000000000E+00
      0.00000000000000E+00   0.00000000000000E+00  -3.02100696811501E-07   8.68211916452210E-22  -3.02100696811501E-07
      9.15777453514399E-17   6.00000000000000E-01   6.00000000000000E-01   0.00000000000000E+00   0.00000000000000E+00
      3.00501763753313E-07  -9.30641890673111E-23   3.00501763753313E-07   3.08284641350336E-16
      8.00000000000001E-01
      8.00000000000001E-02   8.00000000000001E-02   0.00000000000000E+00   0.00000000000000E+00   0.00000000000000E+00
      0.00000000000000E+00   0.00000000000000E+00  -3.96891223577358E-16   0.00000000000000E+00   0.00000000000000E+00