DF-ISE text

Info {
  version   = 1.0
  type      = xyplot
  datasets  = [
    "time"
    "gate OuterVoltage" "gate InnerVoltage" "gate QuasiFermiPotential" "gate DisplacementCurrent" "gate eCurrent"
    "gate hCurrent" "gate TotalCurrent" "gate Charge" "source OuterVoltage" "source InnerVoltage"
    "source QuasiFermiPotential" "source DisplacementCurrent" "source eCurrent" "source hCurrent" "source TotalCurrent"
    "source Charge" "drain OuterVoltage" "drain InnerVoltage" "drain QuasiFermiPotential" "drain DisplacementCurrent"
    "drain eCurrent" "drain hCurrent" "drain TotalCurrent" "drain Charge" ]
  functions = [
    Time
    OuterVoltage InnerVoltage QuasiFermiPotential DisplacementCurrent eCurrent
    hCurrent TotalCurrent Charge OuterVoltage InnerVoltage
    QuasiFermiPotential DisplacementCurrent eCurrent hCurrent TotalCurrent
    Charge OuterVoltage InnerVoltage QuasiFermiPotential DisplacementCurrent
    eCurrent hCurrent TotalCurrent Charge ]
}

Data {
      0.00000000000000E+00
      0.00000000000000E+00   0.00000000000000E+00   0.00000000000000E+00   0.00000000000000E+00   0.00000000000000E+00
      0.00000000000000E+00   0.00000000000000E+00   4.46798032913890E-16   0.00000000000000E+00   0.00000000000000E+00
      0.00000000000000E+00   0.00000000000000E+00   1.78739493813645E-08   1.78885414752548E-16   1.78739495602499E-08
     -1.17024601823925E-16  -6.00000000000000E-01  -6.00000000000000E-01   0.00000000000000E+00   0.00000000000000E+00
     -1.78739494364722E-08  -1.59271351922160E-14  -1.78739653636074E-08  -3.31370942833571E-16
      1.66666666666667E-02
     -1.66666666666667E-03  -1.66666666666667E-03   0.00000000000000E+00   0.00000000000000E+00   0.00000000000000E+00
      0.00000000000000E+00   0.00000000000000E+00   4.45596714668236E-16   0.00000000000000E+00   0.00000000000000E+00
      0.00000000000000E+00   0.00000000000000E+00   1.89355483350498E-08  -6.80678178849106E-16   1.89355476543716E-08
     -1.16404350719936E-16  -6.00000000000000E-01  -6.00000000000000E-01   0.00000000000000E+00   0.00000000000000E+00
     -1.89355474770552E-08   6.93197636676360E-15  -1.89355405450788E-08  -3.30797079302814E-16
      3.33333333333333E-02
     -3.33333333333333E-03  -3.33333333333333E-03   0.00000000000000E+00   0.00000000000000E+00   0.00000000000000E+00
      0.00000000000000E+00   0.00000000000000E+00   4.44394998118939E-16   0.00000000000000E+00   0.00000000000000E+00
      0.00000000000000E+00   0.00000000000000E+00   2.00600257103866E-08  -3.96977653194525E-15   2.00600217406100E-08
     -1.15783929858281E-16  -6.00000000000000E-01  -6.00000000000000E-01   0.00000000000000E+00   0.00000000000000E+00
     -2.00600220352484E-08   1.36339902502764E-13  -2.00598856953459E-08  -3.30223122697752E-16
      5.00000000000000E-02
     -5.00000000000000E-03  -5.00000000000000E-03   0.00000000000000E+00   0.00000000000000E+00   0.00000000000000E+00
      0.00000000000000E+00   0.00000000000000E+00   4.43192880358370E-16   0.00000000000000E+00   0.00000000000000E+00
      0.00000000000000E+00   0.00000000000000E+00   2.12511086248835E-08  -9.23050926213485E-15   2.12510993943743E-08
     -1.15163339514712E-16  -6.00000000000000E-01  -6.00000000000000E-01   0.00000000000000E+00   0.00000000000000E+00
     -2.12510971244787E-08   1.13281392342381E-13  -2.12509838430863E-08  -3.29649072871502E-16
      6.66666666666667E-02
     -6.66666666666667E-03  -6.66666666666667E-03   0.00000000000000E+00   0.00000000000000E+00   0.00000000000000E+00
      0.00000000000000E+00   0.00000000000000E+00   4.41990359874009E-16   0.00000000000000E+00   0.00000000000000E+00
      0.00000000000000E+00   0.00000000000000E+00   2.25126653868800E-08  -1.11599059742551E-13   2.25125537878203E-08
     -1.14542579983657E-16  -6.00000000000000E-01  -6.00000000000000E-01   0.00000000000000E+00   0.00000000000000E+00
     -2.25126764081642E-08  -9.79597282487498E-13  -2.25136560054467E-08  -3.29074931164344E-16
      8.33333333333333E-02
     -8.33333333333333E-03  -8.33333333333333E-03   0.00000000000000E+00   0.00000000000000E+00   0.00000000000000E+00
      0.00000000000000E+00   0.00000000000000E+00   4.40787430650494E-16   0.00000000000000E+00   0.00000000000000E+00
      0.00000000000000E+00   0.00000000000000E+00   2.38489109932671E-08  -1.13235622013657E-13   2.38487977576451E-08
     -1.13921651586515E-16  -6.00000000000000E-01  -6.00000000000000E-01   0.00000000000000E+00   0.00000000000000E+00
     -2.38489121640282E-08  -1.17004021920612E-12  -2.38500822042474E-08  -3.28500694601913E-16
      1.00000000000000E-01
     -1.00000000000000E-02  -1.00000000000000E-02   0.00000000000000E+00   0.00000000000000E+00   0.00000000000000E+00
      0.00000000000000E+00   0.00000000000000E+00   4.39584090918484E-16   0.00000000000000E+00   0.00000000000000E+00
      0.00000000000000E+00   0.00000000000000E+00   2.52642004565276E-08  -1.20259720088542E-13   2.52640801968075E-08
     -1.13300554658553E-16  -6.00000000000000E-01  -6.00000000000000E-01   0.00000000000000E+00   0.00000000000000E+00
     -2.52641962886623E-08  -1.53138991048953E-12  -2.52657276785728E-08  -3.27926364388409E-16
      1.16666666666667E-01
     -1.16666666666667E-02  -1.16666666666667E-02   0.00000000000000E+00   0.00000000000000E+00   0.00000000000000E+00
      0.00000000000000E+00   0.00000000000000E+00   4.38380335817138E-16   0.00000000000000E+00   0.00000000000000E+00
      0.00000000000000E+00   0.00000000000000E+00   2.67631982352989E-08   2.32685340147965E-15   2.67632005621523E-08
     -1.12679289564987E-16  -6.00000000000000E-01  -6.00000000000000E-01   0.00000000000000E+00   0.00000000000000E+00
     -2.67631998138774E-08  -9.40413351785463E-13  -2.67641402272292E-08  -3.27351938814970E-16
      1.33333333333333E-01
     -1.33333333333333E-02  -1.33333333333333E-02   0.00000000000000E+00   0.00000000000000E+00   0.00000000000000E+00
      0.00000000000000E+00   0.00000000000000E+00   4.37176164698585E-16   0.00000000000000E+00   0.00000000000000E+00
      0.00000000000000E+00   0.00000000000000E+00   2.83507946976084E-08   3.80084355450788E-15   2.83507984984519E-08
     -1.12057856685020E-16  -6.00000000000000E-01  -6.00000000000000E-01   0.00000000000000E+00   0.00000000000000E+00
     -2.83507981389239E-08  -7.53770674138911E-13  -2.83515519095981E-08  -3.26777420425190E-16
      1.50000000000000E-01
     -1.50000000000000E-02  -1.50000000000000E-02   0.00000000000000E+00   0.00000000000000E+00   0.00000000000000E+00
      0.00000000000000E+00   0.00000000000000E+00   4.35971574469073E-16   0.00000000000000E+00   0.00000000000000E+00
      0.00000000000000E+00   0.00000000000000E+00   3.00322218547507E-08  -9.73383806352050E-14   3.00321245163701E-08
     -1.11436256425156E-16  -6.00000000000000E-01  -6.00000000000000E-01   0.00000000000000E+00   0.00000000000000E+00
     -3.00322418280313E-08  -1.64786313076085E-12  -3.00338896911621E-08  -3.26202809319008E-16
      1.66666666666667E-01
     -1.66666666666667E-02  -1.66666666666667E-02   0.00000000000000E+00   0.00000000000000E+00   0.00000000000000E+00
      0.00000000000000E+00   0.00000000000000E+00   4.34766559221368E-16   0.00000000000000E+00   0.00000000000000E+00
      0.00000000000000E+00   0.00000000000000E+00   3.18131137028116E-08  -1.17617777142971E-13   3.18129960850344E-08
     -1.10814489222735E-16  -6.00000000000000E-01  -6.00000000000000E-01   0.00000000000000E+00   0.00000000000000E+00
     -3.18131160961829E-08  -1.22135562841632E-12  -3.18143374518113E-08  -3.25628102951859E-16
      1.83333333333333E-01
     -1.83333333333333E-02  -1.83333333333333E-02   0.00000000000000E+00   0.00000000000000E+00   0.00000000000000E+00
      0.00000000000000E+00   0.00000000000000E+00   4.33561116648384E-16   0.00000000000000E+00   0.00000000000000E+00
      0.00000000000000E+00   0.00000000000000E+00   3.36992953804917E-08  -1.44773046025960E-13   3.36991506074457E-08
     -1.10192555534527E-16  -6.00000000000000E-01  -6.00000000000000E-01   0.00000000000000E+00   0.00000000000000E+00
     -3.36992727864552E-08  -1.44085382097503E-12  -3.37007136402762E-08  -3.25053302306213E-16
      2.00000000000000E-01
     -2.00000000000000E-02  -2.00000000000000E-02   0.00000000000000E+00   0.00000000000000E+00   0.00000000000000E+00
      0.00000000000000E+00   0.00000000000000E+00   4.32355243282842E-16   0.00000000000000E+00   0.00000000000000E+00
      0.00000000000000E+00   0.00000000000000E+00   3.56968477890738E-08  -8.85923989915123E-14   3.56967591966748E-08
     -1.09570455845535E-16  -6.00000000000000E-01  -6.00000000000000E-01   0.00000000000000E+00   0.00000000000000E+00
     -3.56968757384437E-08  -2.14281435134460E-12  -3.56990185527950E-08  -3.24478407395687E-16
      2.16666666666667E-01
     -2.16666666666667E-02  -2.16666666666667E-02   0.00000000000000E+00   0.00000000000000E+00   0.00000000000000E+00
      0.00000000000000E+00   0.00000000000000E+00   4.31148935239648E-16   0.00000000000000E+00   0.00000000000000E+00
      0.00000000000000E+00   0.00000000000000E+00   3.78124692700630E-08  -1.20454746005780E-13   3.78123488153170E-08
     -1.08948190663768E-16  -6.00000000000000E-01  -6.00000000000000E-01   0.00000000000000E+00   0.00000000000000E+00
     -3.78124730618427E-08  -2.76659194547608E-12  -3.78152396537882E-08  -3.23903417892610E-16
      2.33333333333333E-01
     -2.33333333333333E-02  -2.33333333333333E-02   0.00000000000000E+00   0.00000000000000E+00   0.00000000000000E+00
      0.00000000000000E+00   0.00000000000000E+00   4.29942188699258E-16   0.00000000000000E+00   0.00000000000000E+00
      0.00000000000000E+00   0.00000000000000E+00   4.00529703833490E-08  -1.41701256950539E-13   4.00528286820921E-08
     -1.08325760530648E-16  -6.00000000000000E-01  -6.00000000000000E-01   0.00000000000000E+00   0.00000000000000E+00
     -4.00529538383160E-08  -2.71768145979821E-12  -4.00556715197758E-08  -3.23328333643357E-16
      2.50000000000000E-01
     -2.50000000000000E-02  -2.50000000000000E-02   0.00000000000000E+00   0.00000000000000E+00   0.00000000000000E+00
      0.00000000000000E+00   0.00000000000000E+00   4.28734999907651E-16   0.00000000000000E+00   0.00000000000000E+00
      0.00000000000000E+00   0.00000000000000E+00   4.24256232821140E-08  -1.03774027998521E-13   4.24255195080860E-08
     -1.07703166012651E-16  -6.00000000000000E-01  -6.00000000000000E-01   0.00000000000000E+00   0.00000000000000E+00
     -4.24256412125631E-08  -1.69533503083498E-12  -4.24273365475939E-08  -3.22753154664306E-16
      2.66666666666667E-01
     -2.66666666666667E-02  -2.66666666666667E-02   0.00000000000000E+00   0.00000000000000E+00   0.00000000000000E+00
      0.00000000000000E+00   0.00000000000000E+00   4.27527365178005E-16   0.00000000000000E+00   0.00000000000000E+00
      0.00000000000000E+00   0.00000000000000E+00   4.49382797203793E-08  -1.17873149455377E-13   4.49381618472299E-08
     -1.07080407703670E-16  -6.00000000000000E-01  -6.00000000000000E-01   0.00000000000000E+00   0.00000000000000E+00
     -4.49382870237576E-08   8.70464580604055E-13  -4.49374165591770E-08  -3.22177881158457E-16
      2.83333333333333E-01
     -2.83333333333333E-02  -2.83333333333333E-02   0.00000000000000E+00   0.00000000000000E+00   0.00000000000000E+00
      0.00000000000000E+00   0.00000000000000E+00   4.26319280131676E-16   0.00000000000000E+00   0.00000000000000E+00
      0.00000000000000E+00   0.00000000000000E+00   4.75989873025114E-08   1.35617046953998E-14   4.75990008642161E-08
     -1.06457486230522E-16  -6.00000000000000E-01  -6.00000000000000E-01   0.00000000000000E+00   0.00000000000000E+00
     -4.75990012898745E-08   1.51959131311307E-12  -4.75974816985614E-08  -3.21602512534839E-16
      3.00000000000000E-01
     -3.00000000000000E-02  -3.00000000000000E-02   0.00000000000000E+00   0.00000000000000E+00   0.00000000000000E+00
      0.00000000000000E+00   0.00000000000000E+00   4.25110741894278E-16   0.00000000000000E+00   0.00000000000000E+00
      0.00000000000000E+00   0.00000000000000E+00   5.04165674076352E-08   4.84000430035243E-15   5.04165722476395E-08
     -1.05834402253273E-16  -6.00000000000000E-01  -6.00000000000000E-01   0.00000000000000E+00   0.00000000000000E+00
     -5.04165731346649E-08   1.16530857922906E-13  -5.04164566038070E-08  -3.21027050132174E-16
      3.16666666666667E-01
     -3.16666666666667E-02  -3.16666666666667E-02   0.00000000000000E+00   0.00000000000000E+00   0.00000000000000E+00
      0.00000000000000E+00   0.00000000000000E+00   4.23901744566232E-16   0.00000000000000E+00   0.00000000000000E+00
      0.00000000000000E+00   0.00000000000000E+00   5.34002004997181E-08  -3.98052669145211E-16   5.34002001016655E-08
     -1.05211156469164E-16  -6.00000000000000E-01  -6.00000000000000E-01   0.00000000000000E+00   0.00000000000000E+00
     -5.34002011987446E-08  -1.40385314348933E-13  -5.34003415840589E-08  -3.20451492439296E-16
      3.33333333333333E-01
     -3.33333333333333E-02  -3.33333333333333E-02   0.00000000000000E+00   0.00000000000000E+00   0.00000000000000E+00
      0.00000000000000E+00   0.00000000000000E+00   4.22692285045676E-16   0.00000000000000E+00   0.00000000000000E+00
      0.00000000000000E+00   0.00000000000000E+00   5.65596056241565E-08  -1.37113391185918E-13   5.65594685107653E-08
     -1.04587749605969E-16  -6.00000000000000E-01  -6.00000000000000E-01   0.00000000000000E+00   0.00000000000000E+00
     -5.65595954187243E-08  -2.30124449407962E-12  -5.65618966632184E-08  -3.19875840655472E-16
      3.50000000000000E-01
     -3.50000000000000E-02  -3.50000000000000E-02   0.00000000000000E+00   0.00000000000000E+00   0.00000000000000E+00
      0.00000000000000E+00   0.00000000000000E+00   4.21482356557907E-16   0.00000000000000E+00   0.00000000000000E+00
      0.00000000000000E+00   0.00000000000000E+00   5.99050399282633E-08  -1.53015327060641E-13   5.99048869129363E-08
     -1.03964182422504E-16  -6.00000000000000E-01  -6.00000000000000E-01   0.00000000000000E+00   0.00000000000000E+00
     -5.99050157296767E-08  -1.60921387487436E-12  -5.99066249435516E-08  -3.19300092536255E-16
      3.66666666666667E-01
     -3.66666666666667E-02  -3.66666666666667E-02   0.00000000000000E+00   0.00000000000000E+00   0.00000000000000E+00
      0.00000000000000E+00   0.00000000000000E+00   4.20271955538469E-16   0.00000000000000E+00   0.00000000000000E+00
      0.00000000000000E+00   0.00000000000000E+00   6.34473459057279E-08  -1.58451032631678E-13   6.34471874546953E-08
     -1.03340455711134E-16  -6.00000000000000E-01  -6.00000000000000E-01   0.00000000000000E+00   0.00000000000000E+00
     -6.34473157619191E-08  -1.33060248067796E-12  -6.34486463643998E-08  -3.18724249076894E-16
      3.83333333333333E-01
     -3.83333333333333E-02  -3.83333333333333E-02   0.00000000000000E+00   0.00000000000000E+00   0.00000000000000E+00
      0.00000000000000E+00   0.00000000000000E+00   4.19061077206677E-16   0.00000000000000E+00   0.00000000000000E+00
      0.00000000000000E+00   0.00000000000000E+00   6.71980241010132E-08  -1.58399914685638E-13   6.71978657010985E-08
     -1.02716570304709E-16  -6.00000000000000E-01  -6.00000000000000E-01   0.00000000000000E+00   0.00000000000000E+00
     -6.71979939600688E-08  -1.46028798574628E-12  -6.71994542480545E-08  -3.18148310291479E-16
      4.00000000000000E-01
     -4.00000000000000E-02  -4.00000000000000E-02   0.00000000000000E+00   0.00000000000000E+00   0.00000000000000E+00
      0.00000000000000E+00   0.00000000000000E+00   4.17849716457435E-16   0.00000000000000E+00   0.00000000000000E+00
      0.00000000000000E+00   0.00000000000000E+00   7.11692596123743E-08  -1.67636181470704E-13   7.11690919761928E-08
     -1.02092527077264E-16  -6.00000000000000E-01  -6.00000000000000E-01   0.00000000000000E+00   0.00000000000000E+00
     -7.11692191809502E-08  -1.95244947475908E-12  -7.11711716304250E-08  -3.17572276011531E-16
      4.16666666666667E-01
     -4.16666666666667E-02  -4.16666666666667E-02   0.00000000000000E+00   0.00000000000000E+00   0.00000000000000E+00
      0.00000000000000E+00   0.00000000000000E+00   4.16637868050359E-16   0.00000000000000E+00   0.00000000000000E+00
      0.00000000000000E+00   0.00000000000000E+00   7.53739184205235E-08  -1.70681388468237E-13   7.53737477391351E-08
     -1.01468326943287E-16  -6.00000000000000E-01  -6.00000000000000E-01   0.00000000000000E+00   0.00000000000000E+00
     -7.53738731227774E-08  -2.70898079243909E-12  -7.53765821035698E-08  -3.16996146093291E-16
      4.33333333333333E-01
     -4.33333333333333E-02  -4.33333333333333E-02   0.00000000000000E+00   0.00000000000000E+00   0.00000000000000E+00
      0.00000000000000E+00   0.00000000000000E+00   4.15425526559407E-16   0.00000000000000E+00   0.00000000000000E+00
      0.00000000000000E+00   0.00000000000000E+00   7.98256132802047E-08  -1.52068677666313E-13   7.98254612115270E-08
     -1.00843970849913E-16  -6.00000000000000E-01  -6.00000000000000E-01   0.00000000000000E+00   0.00000000000000E+00
     -7.98255863622171E-08  -3.60750492980530E-12  -7.98291938671469E-08  -3.16419920392879E-16
      4.50000000000000E-01
     -4.50000000000000E-02  -4.50000000000000E-02   0.00000000000000E+00   0.00000000000000E+00   0.00000000000000E+00
      0.00000000000000E+00   0.00000000000000E+00   4.14212686405648E-16   0.00000000000000E+00   0.00000000000000E+00
      0.00000000000000E+00   0.00000000000000E+00   8.45387903155766E-08  -1.41194716805369E-13   8.45386491208598E-08
     -1.00219459792537E-16  -6.00000000000000E-01  -6.00000000000000E-01   0.00000000000000E+00   0.00000000000000E+00
     -8.45387715187305E-08  -4.58644784672466E-12  -8.45433579665772E-08  -3.15843598773888E-16
      4.66666666666667E-01
     -4.66666666666667E-02  -4.66666666666667E-02   0.00000000000000E+00   0.00000000000000E+00   0.00000000000000E+00
      0.00000000000000E+00   0.00000000000000E+00   4.12999341819415E-16   0.00000000000000E+00   0.00000000000000E+00
      0.00000000000000E+00   0.00000000000000E+00   8.95287032349260E-08  -1.45189509106203E-13   8.95285580454169E-08
     -9.95947948063705E-17  -6.00000000000000E-01  -6.00000000000000E-01   0.00000000000000E+00   0.00000000000000E+00
     -8.95286773647159E-08  -5.69387879329921E-12  -8.95343712435092E-08  -3.15267181106561E-16
      4.83333333333333E-01
     -4.83333333333333E-02  -4.83333333333333E-02   0.00000000000000E+00   0.00000000000000E+00   0.00000000000000E+00
      0.00000000000000E+00   0.00000000000000E+00   4.11785486830495E-16   0.00000000000000E+00   0.00000000000000E+00
      0.00000000000000E+00   0.00000000000000E+00   9.48114739566631E-08  -1.59840920631564E-13   9.48113141157424E-08
     -9.89699769714904E-17  -6.00000000000000E-01  -6.00000000000000E-01   0.00000000000000E+00   0.00000000000000E+00
     -9.48114314426152E-08  -7.09239050291211E-12  -9.48185238331181E-08  -3.14690667258236E-16
      5.00000000000000E-01
     -5.00000000000000E-02  -5.00000000000000E-02   0.00000000000000E+00   0.00000000000000E+00   0.00000000000000E+00
      0.00000000000000E+00   0.00000000000000E+00   4.10571115241139E-16   0.00000000000000E+00   0.00000000000000E+00
      0.00000000000000E+00   0.00000000000000E+00   1.00404149655347E-07  -1.69050883139670E-13   1.00403980604464E-07
     -9.83450074154941E-17  -6.00000000000000E-01  -6.00000000000000E-01   0.00000000000000E+00   0.00000000000000E+00
     -1.00404095367133E-07  -9.01094089737576E-12  -1.00413106308030E-07  -3.14114057079762E-16
      5.16666666666667E-01
     -5.16666666666667E-02  -5.16666666666667E-02   0.00000000000000E+00   0.00000000000000E+00   0.00000000000000E+00
      0.00000000000000E+00   0.00000000000000E+00   4.09356220603976E-16   0.00000000000000E+00   0.00000000000000E+00
      0.00000000000000E+00   0.00000000000000E+00   1.06324789265663E-07  -1.71660400111967E-13   1.06324617605263E-07
     -9.77198873143956E-17  -6.00000000000000E-01  -6.00000000000000E-01   0.00000000000000E+00   0.00000000000000E+00
     -1.06324729929301E-07  -1.16652045959506E-11  -1.06336395133897E-07  -3.13537350393609E-16
      5.33333333333333E-01
     -5.33333333333333E-02  -5.33333333333333E-02   0.00000000000000E+00   0.00000000000000E+00   0.00000000000000E+00
      0.00000000000000E+00   0.00000000000000E+00   4.08140796218140E-16   0.00000000000000E+00   0.00000000000000E+00
      0.00000000000000E+00   0.00000000000000E+00   1.12592511674305E-07  -1.70422560951959E-13   1.12592341251744E-07
     -9.70946178955313E-17  -6.00000000000000E-01  -6.00000000000000E-01   0.00000000000000E+00   0.00000000000000E+00
     -1.12592450444663E-07  -1.51831159113534E-11  -1.12607633560574E-07  -3.12960546987107E-16
      5.50000000000000E-01
     -5.50000000000000E-02  -5.50000000000000E-02   0.00000000000000E+00   0.00000000000000E+00   0.00000000000000E+00
      0.00000000000000E+00   0.00000000000000E+00   4.06924835119102E-16   0.00000000000000E+00   0.00000000000000E+00
      0.00000000000000E+00   0.00000000000000E+00   1.19227559868153E-07  -1.67276727014315E-13   1.19227392591426E-07
     -9.64692004317917E-17  -6.00000000000000E-01  -6.00000000000000E-01   0.00000000000000E+00   0.00000000000000E+00
     -1.19227496221528E-07  -1.95036790677650E-11  -1.19246999900596E-07  -3.12383646613131E-16
      5.66666666666667E-01
     -5.66666666666667E-02  -5.66666666666667E-02   0.00000000000000E+00   0.00000000000000E+00   0.00000000000000E+00
      0.00000000000000E+00   0.00000000000000E+00   4.05708330131139E-16   0.00000000000000E+00   0.00000000000000E+00
      0.00000000000000E+00   0.00000000000000E+00   1.26251353485408E-07  -1.66414756376877E-13   1.26251187070652E-07
     -9.58436362523540E-17  -6.00000000000000E-01  -6.00000000000000E-01   0.00000000000000E+00   0.00000000000000E+00
     -1.26251289546068E-07  -2.42466518864873E-11  -1.26275536197954E-07  -3.11806649002539E-16
      5.83333333333333E-01
     -5.83333333333333E-02  -5.83333333333333E-02   0.00000000000000E+00   0.00000000000000E+00   0.00000000000000E+00
      0.00000000000000E+00   0.00000000000000E+00   4.04491271419035E-16   0.00000000000000E+00   0.00000000000000E+00
      0.00000000000000E+00   0.00000000000000E+00   1.33686844901186E-07   6.39423712710882E-15   1.33686851295424E-07
     -9.52179267457826E-17  -6.00000000000000E-01  -6.00000000000000E-01   0.00000000000000E+00   0.00000000000000E+00
     -1.33686850128095E-07  -1.76907220695058E-11  -1.33704540850164E-07  -3.11229551417303E-16
      6.00000000000000E-01
     -6.00000000000000E-02  -6.00000000000000E-02   0.00000000000000E+00   0.00000000000000E+00   0.00000000000000E+00
      0.00000000000000E+00   0.00000000000000E+00   4.03273657220642E-16   0.00000000000000E+00   0.00000000000000E+00
      0.00000000000000E+00   0.00000000000000E+00   1.41557970741084E-07  -1.59877395753018E-13   1.41557810863688E-07
     -9.45920733340513E-17  -6.00000000000000E-01  -6.00000000000000E-01   0.00000000000000E+00   0.00000000000000E+00
     -1.41557905368320E-07  -2.79788135011615E-11  -1.41585884181821E-07  -3.10652359187655E-16
      6.16666666666667E-01
     -6.16666666666667E-02  -6.16666666666667E-02   0.00000000000000E+00   0.00000000000000E+00   0.00000000000000E+00
      0.00000000000000E+00   0.00000000000000E+00   4.02055475957188E-16   0.00000000000000E+00   0.00000000000000E+00
      0.00000000000000E+00   0.00000000000000E+00   1.49889355456036E-07  -9.75898782242994E-14   1.49889257866158E-07
     -9.39660775232714E-17  -6.00000000000000E-01  -6.00000000000000E-01   0.00000000000000E+00   0.00000000000000E+00
     -1.49889334368292E-07  -1.76834151662663E-11  -1.49907017783459E-07  -3.10075068283572E-16
      6.33333333333334E-01
     -6.33333333333334E-02  -6.33333333333334E-02   0.00000000000000E+00   0.00000000000000E+00   0.00000000000000E+00
      0.00000000000000E+00   0.00000000000000E+00   4.00836722202986E-16   0.00000000000000E+00   0.00000000000000E+00
      0.00000000000000E+00   0.00000000000000E+00   1.58707522349398E-07  -1.22831334402407E-13   1.58707399518064E-07
     -9.33399408564346E-17  -6.00000000000000E-01  -6.00000000000000E-01   0.00000000000000E+00   0.00000000000000E+00
     -1.58707478351735E-07  -6.15341774842648E-12  -1.58713631769484E-07  -3.09497680740992E-16
      6.50000000000000E-01
     -6.50000000000000E-02  -6.50000000000000E-02   0.00000000000000E+00   0.00000000000000E+00   0.00000000000000E+00
      0.00000000000000E+00   0.00000000000000E+00   3.99617388576853E-16   0.00000000000000E+00   0.00000000000000E+00
      0.00000000000000E+00   0.00000000000000E+00   1.68040055445494E-07  -1.14543681066395E-13   1.68039940901813E-07
     -9.27136649421709E-17  -6.00000000000000E-01  -6.00000000000000E-01   0.00000000000000E+00   0.00000000000000E+00
     -1.68040020372439E-07   7.24696981965490E-12  -1.68032773402619E-07  -3.08920197165616E-16
      6.66666666666667E-01
     -6.66666666666667E-02  -6.66666666666667E-02   0.00000000000000E+00   0.00000000000000E+00   0.00000000000000E+00
      0.00000000000000E+00   0.00000000000000E+00   3.98397466305826E-16   0.00000000000000E+00   0.00000000000000E+00
      0.00000000000000E+00   0.00000000000000E+00   1.77916363548841E-07   6.35505815940056E-14   1.77916427099423E-07
     -9.20872514587532E-17  -6.00000000000000E-01  -6.00000000000000E-01   0.00000000000000E+00   0.00000000000000E+00
     -1.77916431535718E-07   5.03565182406231E-12  -1.77911395883894E-07  -3.08342616699994E-16
      6.83333333333334E-01
     -6.83333333333334E-02  -6.83333333333334E-02   0.00000000000000E+00   0.00000000000000E+00   0.00000000000000E+00
      0.00000000000000E+00   0.00000000000000E+00   3.97176949356556E-16   0.00000000000000E+00   0.00000000000000E+00
      0.00000000000000E+00   0.00000000000000E+00   1.88369158144477E-07  -8.11893288510447E-14   1.88369076955148E-07
     -9.14607021418344E-17  -6.00000000000000E-01  -6.00000000000000E-01   0.00000000000000E+00   0.00000000000000E+00
     -1.88369139406153E-07  -1.66524512631516E-11  -1.88385791857416E-07  -3.07764942116895E-16
      7.00000000000001E-01
     -7.00000000000000E-02  -7.00000000000000E-02   0.00000000000000E+00   0.00000000000000E+00   0.00000000000000E+00
      0.00000000000000E+00   0.00000000000000E+00   3.95955824076550E-16   0.00000000000000E+00   0.00000000000000E+00
      0.00000000000000E+00   0.00000000000000E+00   1.99431007182609E-07  -6.31701883707867E-14   1.99430944012420E-07
     -9.08340188165423E-17  -6.00000000000000E-01  -6.00000000000000E-01   0.00000000000000E+00   0.00000000000000E+00
     -1.99430989105294E-07  -6.58545842486738E-12  -1.99437574563719E-07  -3.07187168922839E-16
      7.16666666666667E-01
     -7.16666666666667E-02  -7.16666666666667E-02   0.00000000000000E+00   0.00000000000000E+00   0.00000000000000E+00
      0.00000000000000E+00   0.00000000000000E+00   3.94734083629573E-16   0.00000000000000E+00   0.00000000000000E+00
      0.00000000000000E+00   0.00000000000000E+00   2.11136764370780E-07  -3.57267152854765E-14   2.11136728644065E-07
     -9.02072033562341E-17  -6.00000000000000E-01  -6.00000000000000E-01   0.00000000000000E+00   0.00000000000000E+00
     -2.11136761826888E-07   4.78221506491819E-12  -2.11131979611823E-07  -3.06609299321907E-16
      7.33333333333334E-01
     -7.33333333333334E-02  -7.33333333333334E-02   0.00000000000000E+00   0.00000000000000E+00   0.00000000000000E+00
      0.00000000000000E+00   0.00000000000000E+00   3.93511718737590E-16   0.00000000000000E+00   0.00000000000000E+00
      0.00000000000000E+00   0.00000000000000E+00   2.23523445830580E-07  -2.53940740027881E-14   2.23523420436506E-07
     -8.95802577031079E-17  -6.00000000000000E-01  -6.00000000000000E-01   0.00000000000000E+00   0.00000000000000E+00
     -2.23523456871058E-07   7.77533161134734E-12  -2.23515681539446E-07  -3.06031333630819E-16
      7.50000000000001E-01
     -7.50000000000001E-02  -7.50000000000001E-02   0.00000000000000E+00   0.00000000000000E+00   0.00000000000000E+00
      0.00000000000000E+00   0.00000000000000E+00   3.92288719210479E-16   0.00000000000000E+00   0.00000000000000E+00
      0.00000000000000E+00   0.00000000000000E+00   2.36630189055138E-07  -4.88569094068724E-15   2.36630184169447E-07
     -8.89531838820466E-17  -6.00000000000000E-01  -6.00000000000000E-01   0.00000000000000E+00   0.00000000000000E+00
     -2.36630203358982E-07   6.14678938899635E-12  -2.36624056569593E-07  -3.05453271702494E-16
      7.66666666666667E-01
     -7.66666666666667E-02  -7.66666666666667E-02   0.00000000000000E+00   0.00000000000000E+00   0.00000000000000E+00
      0.00000000000000E+00   0.00000000000000E+00   3.91065074443242E-16   0.00000000000000E+00   0.00000000000000E+00
      0.00000000000000E+00   0.00000000000000E+00   2.50498409713844E-07  -3.50369794497784E-16   2.50498409363474E-07
     -8.83259839929838E-17  -6.00000000000000E-01  -6.00000000000000E-01   0.00000000000000E+00   0.00000000000000E+00
     -2.50498419436255E-07   2.08736989095099E-12  -2.50496332066364E-07  -3.04875113383014E-16
      7.83333333333334E-01
     -7.83333333333334E-02  -7.83333333333334E-02   0.00000000000000E+00   0.00000000000000E+00   0.00000000000000E+00
      0.00000000000000E+00   0.00000000000000E+00   3.89840773477346E-16   0.00000000000000E+00   0.00000000000000E+00
      0.00000000000000E+00   0.00000000000000E+00   2.65171819330069E-07   1.77454181955074E-14   2.65171837075487E-07
     -8.76986602173407E-17  -6.00000000000000E-01  -6.00000000000000E-01   0.00000000000000E+00   0.00000000000000E+00
     -2.65171829783020E-07  -2.26028425898011E-12  -2.65174090067279E-07  -3.04296858527903E-16
      8.00000000000001E-01
     -8.00000000000001E-02  -8.00000000000001E-02   0.00000000000000E+00   0.00000000000000E+00   0.00000000000000E+00
      0.00000000000000E+00   0.00000000000000E+00   3.88615805018889E-16   0.00000000000000E+00   0.00000000000000E+00