DF-ISE text

Info {
  version   = 1.0
  type      = xyplot
  datasets  = [
    "time"
    "gate OuterVoltage" "gate InnerVoltage" "gate QuasiFermiPotential" "gate DisplacementCurrent" "gate eCurrent"
    "gate hCurrent" "gate TotalCurrent" "gate Charge" "source OuterVoltage" "source InnerVoltage"
    "source QuasiFermiPotential" "source DisplacementCurrent" "source eCurrent" "source hCurrent" "source TotalCurrent"
    "source Charge" "drain OuterVoltage" "drain InnerVoltage" "drain QuasiFermiPotential" "drain DisplacementCurrent"
    "drain eCurrent" "drain hCurrent" "drain TotalCurrent" "drain Charge" ]
  functions = [
    Time
    OuterVoltage InnerVoltage QuasiFermiPotential DisplacementCurrent eCurrent
    hCurrent TotalCurrent Charge OuterVoltage InnerVoltage
    QuasiFermiPotential DisplacementCurrent eCurrent hCurrent TotalCurrent
    Charge OuterVoltage InnerVoltage QuasiFermiPotential DisplacementCurrent
    eCurrent hCurrent TotalCurrent Charge ]
}

Data {
      0.00000000000000E+00
      0.00000000000000E+00   0.00000000000000E+00   0.00000000000000E+00   0.00000000000000E+00   0.00000000000000E+00
      0.00000000000000E+00   0.00000000000000E+00  -5.34764575362913E-16   0.00000000000000E+00   0.00000000000000E+00
      0.00000000000000E+00   0.00000000000000E+00  -7.95433662370094E-09  -3.16389705207483E-26  -7.95433662370094E-09
      1.30895651303987E-16   7.80000000000000E-01   7.80000000000000E-01   0.00000000000000E+00   0.00000000000000E+00
      7.95433662370626E-09  -9.36545125073125E-23   7.95433662370617E-09   4.05046230783712E-16
      1.66666666666667E-02
      1.30000000000000E-02   1.30000000000000E-02   0.00000000000000E+00   0.00000000000000E+00   0.00000000000000E+00
      0.00000000000000E+00   0.00000000000000E+00  -5.25589278129266E-16   0.00000000000000E+00   0.00000000000000E+00
      0.00000000000000E+00   0.00000000000000E+00  -1.25108679980355E-08  -3.82593145514341E-20  -1.25108679980738E-08
      1.26096416181736E-16   7.80000000000000E-01   7.80000000000000E-01   0.00000000000000E+00   0.00000000000000E+00
      1.25109419583006E-08   4.53555317755288E-18   1.25109419628362E-08   4.00674347140837E-16
      3.33333333333333E-02
      2.60000000000000E-02   2.60000000000000E-02   0.00000000000000E+00   0.00000000000000E+00   0.00000000000000E+00
      0.00000000000000E+00   0.00000000000000E+00  -5.16394091317444E-16   0.00000000000000E+00   0.00000000000000E+00
      0.00000000000000E+00   0.00000000000000E+00  -1.96620674702515E-08  -3.18537070322128E-20  -1.96620674702834E-08
      1.21283196359470E-16   7.80000000000000E-01   7.80000000000000E-01   0.00000000000000E+00   0.00000000000000E+00
      1.96622296644718E-08   5.80920661945761E-18   1.96622296702810E-08   3.96297923394406E-16
      5.00000000000000E-02
      3.90000000000000E-02   3.90000000000000E-02   0.00000000000000E+00   0.00000000000000E+00   0.00000000000000E+00
      0.00000000000000E+00   0.00000000000000E+00  -5.07177997501984E-16   0.00000000000000E+00   0.00000000000000E+00
      0.00000000000000E+00   0.00000000000000E+00  -3.08742498131080E-08   4.29807149706246E-21  -3.08742498131037E-08
      1.16455547959778E-16   7.80000000000000E-01   7.80000000000000E-01   0.00000000000000E+00   0.00000000000000E+00
      3.08742506539871E-08   3.81636844592957E-18   3.08742506578034E-08   3.91916932433487E-16
      6.66666666666667E-02
      5.20000000000000E-02   5.20000000000000E-02   0.00000000000000E+00   0.00000000000000E+00   0.00000000000000E+00
      0.00000000000000E+00   0.00000000000000E+00  -4.97939809792579E-16   0.00000000000000E+00   0.00000000000000E+00
      0.00000000000000E+00   0.00000000000000E+00  -4.84327450043954E-08  -1.25181368654883E-24  -4.84327450043954E-08
      1.11613039825278E-16   7.80000000000000E-01   7.80000000000000E-01   0.00000000000000E+00   0.00000000000000E+00
      4.84327450044173E-08   9.11916561431208E-21   4.84327450044264E-08   3.87531347717113E-16
      8.33333333333333E-02
      6.50000000000000E-02   6.50000000000000E-02   0.00000000000000E+00   0.00000000000000E+00   0.00000000000000E+00
      0.00000000000000E+00   0.00000000000000E+00  -4.88678100699243E-16   0.00000000000000E+00   0.00000000000000E+00
      0.00000000000000E+00   0.00000000000000E+00  -7.58944883074691E-08   3.97352261907117E-21  -7.58944883074652E-08
      1.06755271020598E-16   7.80000000000000E-01   7.80000000000000E-01   0.00000000000000E+00   0.00000000000000E+00
      7.58944892130852E-08   2.94009449423111E-18   7.58944892160253E-08   3.83141144475787E-16
      1.00000000000000E-01
      7.80000000000000E-02   7.80000000000000E-02   0.00000000000000E+00   0.00000000000000E+00   0.00000000000000E+00
      0.00000000000000E+00   0.00000000000000E+00  -4.79391108880594E-16   0.00000000000000E+00   0.00000000000000E+00
      0.00000000000000E+00   0.00000000000000E+00  -1.18781212203937E-07   4.16806382289761E-21  -1.18781212203933E-07
      1.01881894995601E-16   7.80000000000000E-01   7.80000000000000E-01   0.00000000000000E+00   0.00000000000000E+00
      1.18781213360060E-07   1.32281790601149E-18   1.18781213361383E-07   3.78746301324151E-16
      1.16666666666667E-01
      9.10000000000000E-02   9.10000000000000E-02   0.00000000000000E+00   0.00000000000000E+00   0.00000000000000E+00
      0.00000000000000E+00   0.00000000000000E+00  -4.70076609311350E-16   0.00000000000000E+00   0.00000000000000E+00
      0.00000000000000E+00   0.00000000000000E+00  -1.85640932591078E-07   1.57014977424540E-21  -1.85640932591077E-07
      9.69926527236900E-17   7.80000000000000E-01   7.80000000000000E-01   0.00000000000000E+00   0.00000000000000E+00
      1.85640934257368E-07   2.31021937614245E-19   1.85640934257599E-07   3.74346802558494E-16
      1.33333333333333E-01
      1.04000000000000E-01   1.04000000000000E-01   0.00000000000000E+00   0.00000000000000E+00   0.00000000000000E+00
      0.00000000000000E+00   0.00000000000000E+00  -4.60731729178607E-16   0.00000000000000E+00   0.00000000000000E+00
      0.00000000000000E+00   0.00000000000000E+00  -2.89660289063824E-07   1.15869659822033E-22  -2.89660289063823E-07
      9.20874180267655E-17   7.80000000000000E-01   7.80000000000000E-01   0.00000000000000E+00   0.00000000000000E+00
      2.89660291575208E-07   8.62686278471398E-21   2.89660291575216E-07   3.69942641406973E-16
      1.50000000000000E-01
      1.17000000000000E-01   1.17000000000000E-01   0.00000000000000E+00   0.00000000000000E+00   0.00000000000000E+00
      0.00000000000000E+00   0.00000000000000E+00  -4.51352686020451E-16   0.00000000000000E+00   0.00000000000000E+00
      0.00000000000000E+00   0.00000000000000E+00  -4.51091929146148E-07  -1.11687594728590E-24  -4.51091929146148E-07
      8.71662588504937E-17   7.80000000000000E-01   7.80000000000000E-01   0.00000000000000E+00   0.00000000000000E+00
      4.51091932263551E-07  -9.37176946413256E-23   4.51091932263551E-07   3.65533824515384E-16
      1.66666666666667E-01
      1.30000000000000E-01   1.30000000000000E-01   0.00000000000000E+00   0.00000000000000E+00   0.00000000000000E+00
      0.00000000000000E+00   0.00000000000000E+00  -4.41934418038219E-16   0.00000000000000E+00   0.00000000000000E+00
      0.00000000000000E+00   0.00000000000000E+00  -7.00864345551558E-07   3.81456925435000E-23  -7.00864345551558E-07
      8.22295188431011E-17   7.80000000000000E-01   7.80000000000000E-01   0.00000000000000E+00   0.00000000000000E+00
      7.00864349296704E-07   6.43544685832049E-22   7.00864349296705E-07   3.61120378361646E-16
      1.83333333333333E-01
      1.43000000000000E-01   1.43000000000000E-01   0.00000000000000E+00   0.00000000000000E+00   0.00000000000000E+00
      0.00000000000000E+00   0.00000000000000E+00  -4.32470069675305E-16   0.00000000000000E+00   0.00000000000000E+00
      0.00000000000000E+00   0.00000000000000E+00  -1.08585951112467E-06   3.65820169341462E-23  -1.08585951112467E-06
      7.72779236913598E-17   7.80000000000000E-01   7.80000000000000E-01   0.00000000000000E+00   0.00000000000000E+00
      1.08585951524169E-06   9.08645176059827E-22   1.08585951524170E-06   3.56702358371017E-16
      2.00000000000000E-01
      1.56000000000000E-01   1.56000000000000E-01   0.00000000000000E+00   0.00000000000000E+00   0.00000000000000E+00
      0.00000000000000E+00   0.00000000000000E+00  -4.22950291941766E-16   0.00000000000000E+00   0.00000000000000E+00
      0.00000000000000E+00   0.00000000000000E+00  -1.67644530838190E-06   2.51520525684467E-23  -1.67644530838190E-06
      7.23127155887997E-17   7.80000000000000E-01   7.80000000000000E-01   0.00000000000000E+00   0.00000000000000E+00
      1.67644531306523E-06   1.23562191792478E-21   1.67644531306523E-06   3.52279861266901E-16
      2.16666666666667E-01
      1.69000000000000E-01   1.69000000000000E-01   0.00000000000000E+00   0.00000000000000E+00   0.00000000000000E+00
      0.00000000000000E+00   0.00000000000000E+00  -4.13362324960790E-16   0.00000000000000E+00   0.00000000000000E+00
      0.00000000000000E+00   0.00000000000000E+00  -2.57685907065397E-06   1.73225562314346E-23  -2.57685907065397E-06
      6.73358156860283E-17   7.80000000000000E-01   7.80000000000000E-01   0.00000000000000E+00   0.00000000000000E+00
      2.57685907900615E-06   1.65482077918058E-21   2.57685907900615E-06   3.47853041176656E-16
      2.33333333333333E-01
      1.82000000000000E-01   1.82000000000000E-01   0.00000000000000E+00   0.00000000000000E+00   0.00000000000000E+00
      0.00000000000000E+00   0.00000000000000E+00  -4.03688862572210E-16   0.00000000000000E+00   0.00000000000000E+00
      0.00000000000000E+00   0.00000000000000E+00  -3.93880382493797E-06   1.28884934164833E-23  -3.93880382493797E-06
      6.23500065576216E-17   7.80000000000000E-01   7.80000000000000E-01   0.00000000000000E+00   0.00000000000000E+00
      3.93880385180854E-06   2.00237298617106E-21   3.93880385180854E-06   3.43422129660855E-16
      2.50000000000000E-01
      1.95000000000000E-01   1.95000000000000E-01   0.00000000000000E+00   0.00000000000000E+00   0.00000000000000E+00
      0.00000000000000E+00   0.00000000000000E+00  -3.93906774724685E-16   0.00000000000000E+00   0.00000000000000E+00
      0.00000000000000E+00   0.00000000000000E+00  -5.97789488927006E-06   7.29370213072386E-24  -5.97789488927006E-06
      5.73591125188541E-17   7.80000000000000E-01   7.80000000000000E-01   0.00000000000000E+00   0.00000000000000E+00
      5.97789498580553E-06   1.78402987831281E-21   5.97789498580554E-06   3.38987459034598E-16
      2.66666666666667E-01
      2.08000000000000E-01   2.08000000000000E-01   0.00000000000000E+00   0.00000000000000E+00   0.00000000000000E+00
      0.00000000000000E+00   0.00000000000000E+00  -3.83985900255840E-16   0.00000000000000E+00   0.00000000000000E+00
      0.00000000000000E+00   0.00000000000000E+00  -8.99110233101959E-06   6.43526577491168E-25  -8.99110233101959E-06
      5.23681343906748E-17   7.80000000000000E-01   7.80000000000000E-01   0.00000000000000E+00   0.00000000000000E+00
      8.99110264281907E-06   6.65905352193134E-22   8.99110264281907E-06   3.34549486922354E-16
      2.83333333333333E-01
      2.21000000000000E-01   2.21000000000000E-01   0.00000000000000E+00   0.00000000000000E+00   0.00000000000000E+00
      0.00000000000000E+00   0.00000000000000E+00  -3.73888309287297E-16   0.00000000000000E+00   0.00000000000000E+00
      0.00000000000000E+00   0.00000000000000E+00  -1.33710247799475E-05  -1.26518047118201E-24  -1.33710247799475E-05
      4.73832715889921E-17   7.80000000000000E-01   7.80000000000000E-01   0.00000000000000E+00   0.00000000000000E+00
      1.33710247799434E-05   1.77413273614859E-24   1.33710247799434E-05   3.30108815261807E-16
      3.00000000000000E-01
      2.34000000000000E-01   2.34000000000000E-01   0.00000000000000E+00   0.00000000000000E+00   0.00000000000000E+00
      0.00000000000000E+00   0.00000000000000E+00  -3.63568585629938E-16   0.00000000000000E+00   0.00000000000000E+00
      0.00000000000000E+00   0.00000000000000E+00  -1.96104389985322E-05   2.76625967403027E-24  -1.96104389985322E-05
      4.24117526948845E-17   7.80000000000000E-01   7.80000000000000E-01   0.00000000000000E+00   0.00000000000000E+00
      1.96104410816174E-05   6.67497701239724E-23   1.96104410816174E-05   3.25666184182562E-16
      3.16666666666667E-01
      2.47000000000000E-01   2.47000000000000E-01   0.00000000000000E+00   0.00000000000000E+00   0.00000000000000E+00
      0.00000000000000E+00   0.00000000000000E+00  -3.52975622700163E-16   0.00000000000000E+00   0.00000000000000E+00
      0.00000000000000E+00   0.00000000000000E+00  -2.82903163004527E-05   2.99701758476543E-25  -2.82903163004527E-05
      3.74614223591986E-17   7.80000000000000E-01   7.80000000000000E-01   0.00000000000000E+00   0.00000000000000E+00
      2.82903205377939E-05   7.87985781289465E-24   2.82903205377939E-05   3.21222420658369E-16
      3.33333333333333E-01
      2.60000000000000E-01   2.60000000000000E-01   0.00000000000000E+00   0.00000000000000E+00   0.00000000000000E+00
      0.00000000000000E+00   0.00000000000000E+00  -3.42055921110695E-16   0.00000000000000E+00   0.00000000000000E+00
      0.00000000000000E+00   0.00000000000000E+00  -4.00498185261659E-05   4.05866533354921E-24  -4.00498185261659E-05
      3.25401212714511E-17   7.80000000000000E-01   7.80000000000000E-01   0.00000000000000E+00   0.00000000000000E+00
      4.00498258224177E-05   6.38958709867785E-25   4.00498258224177E-05   3.16778360528208E-16
      3.50000000000000E-01
      2.73000000000000E-01   2.73000000000000E-01   0.00000000000000E+00   0.00000000000000E+00   0.00000000000000E+00
      0.00000000000000E+00   0.00000000000000E+00  -3.30757116076760E-16   0.00000000000000E+00   0.00000000000000E+00
      0.00000000000000E+00   0.00000000000000E+00  -5.55521690803503E-05   9.65703534273150E-24  -5.55521690803503E-05
      2.76550533379770E-17   7.80000000000000E-01   7.80000000000000E-01   0.00000000000000E+00   0.00000000000000E+00
      5.55521797674387E-05   1.08648232033417E-24   5.55521797674387E-05   3.12334776116338E-16
      3.66666666666667E-01
      2.86000000000000E-01   2.86000000000000E-01   0.00000000000000E+00   0.00000000000000E+00   0.00000000000000E+00
      0.00000000000000E+00   0.00000000000000E+00  -3.19027248827024E-16   0.00000000000000E+00   0.00000000000000E+00
      0.00000000000000E+00   0.00000000000000E+00  -7.55036337966741E-05   1.07557186338368E-23  -7.55036337966741E-05
      2.28126388576077E-17   7.80000000000000E-01   7.80000000000000E-01   0.00000000000000E+00   0.00000000000000E+00
      7.55036475753453E-05   5.58259460284777E-25   7.55036475753453E-05   3.07892374768994E-16
      3.83333333333333E-01
      2.99000000000000E-01   2.99000000000000E-01   0.00000000000000E+00   0.00000000000000E+00   0.00000000000000E+00
      0.00000000000000E+00   0.00000000000000E+00  -3.06842578346484E-16   0.00000000000000E+00   0.00000000000000E+00
      0.00000000000000E+00   0.00000000000000E+00  -1.00272061996773E-04   1.34759672822413E-23  -1.00272061996773E-04
      1.80172721552933E-17   7.80000000000000E-01   7.80000000000000E-01   0.00000000000000E+00   0.00000000000000E+00
      1.00272079983657E-04   4.97173889742198E-25   1.00272079983657E-04   3.03451257842921E-16
      4.00000000000000E-01
      3.12000000000000E-01   3.12000000000000E-01   0.00000000000000E+00   0.00000000000000E+00   0.00000000000000E+00
      0.00000000000000E+00   0.00000000000000E+00  -2.94423026426361E-16   0.00000000000000E+00   0.00000000000000E+00
      0.00000000000000E+00   0.00000000000000E+00  -1.27115892136745E-04   2.44817940937025E-23  -1.27115892136745E-04
      1.32439507730178E-17   7.80000000000000E-01   7.80000000000000E-01   0.00000000000000E+00   0.00000000000000E+00
      1.27115892009623E-04  -8.87741937876870E-25   1.27115892009623E-04   2.99007551684483E-16
      4.16666666666667E-01
      3.25000000000000E-01   3.25000000000000E-01   0.00000000000000E+00   0.00000000000000E+00   0.00000000000000E+00
      0.00000000000000E+00   0.00000000000000E+00  -2.81598246846111E-16   0.00000000000000E+00   0.00000000000000E+00
      0.00000000000000E+00   0.00000000000000E+00  -1.57968338742454E-04   1.87407051193286E-24  -1.57968338742454E-04
      8.51392970824205E-18   7.80000000000000E-01   7.80000000000000E-01   0.00000000000000E+00   0.00000000000000E+00
      1.57968352945930E-04   1.49162533291380E-25   1.57968352945930E-04   2.94563847303962E-16
      4.33333333333333E-01
      3.38000000000000E-01   3.38000000000000E-01   0.00000000000000E+00   0.00000000000000E+00   0.00000000000000E+00
      0.00000000000000E+00   0.00000000000000E+00  -2.68378121276540E-16   0.00000000000000E+00   0.00000000000000E+00
      0.00000000000000E+00   0.00000000000000E+00  -1.92773778119847E-04   5.88084221282389E-25  -1.92773778119847E-04
      3.82457663283672E-18   7.80000000000000E-01   7.80000000000000E-01   0.00000000000000E+00   0.00000000000000E+00
      1.92773785845039E-04   9.04857532880136E-26   1.92773785845039E-04   2.90119788144118E-16
      4.50000000000000E-01
      3.51000000000000E-01   3.51000000000000E-01   0.00000000000000E+00   0.00000000000000E+00   0.00000000000000E+00
      0.00000000000000E+00   0.00000000000000E+00  -2.54780407770100E-16   0.00000000000000E+00   0.00000000000000E+00
      0.00000000000000E+00   0.00000000000000E+00  -2.31358265062129E-04  -1.19991347855673E-24  -2.31358265062129E-04
     -8.27082322557141E-19   7.80000000000000E-01   7.80000000000000E-01   0.00000000000000E+00   0.00000000000000E+00
      2.31358269671829E-04   5.35931342689387E-26   2.31358269671829E-04   2.85674871048954E-16
      4.66666666666667E-01
      3.64000000000000E-01   3.64000000000000E-01   0.00000000000000E+00   0.00000000000000E+00   0.00000000000000E+00
      0.00000000000000E+00   0.00000000000000E+00  -2.40825889888249E-16   0.00000000000000E+00   0.00000000000000E+00
      0.00000000000000E+00   0.00000000000000E+00  -2.73501583572626E-04  -3.71759172549361E-25  -2.73501583572626E-04
     -5.44400560360015E-18   7.80000000000000E-01   7.80000000000000E-01   0.00000000000000E+00   0.00000000000000E+00
      2.73501586559009E-04   3.15854390716040E-26   2.73501586559009E-04   2.81228532221213E-16
      4.83333333333333E-01
      3.77000000000000E-01   3.77000000000000E-01   0.00000000000000E+00   0.00000000000000E+00   0.00000000000000E+00
      0.00000000000000E+00   0.00000000000000E+00  -2.26535895909520E-16   0.00000000000000E+00   0.00000000000000E+00
      0.00000000000000E+00   0.00000000000000E+00  -3.18965705576629E-04  -1.02334879906920E-24  -3.18965705576629E-04
     -1.00290939202432E-17   7.80000000000000E-01   7.80000000000000E-01   0.00000000000000E+00   0.00000000000000E+00
      3.18965707619764E-04   1.73359753934399E-26   3.18965707619764E-04   2.76780195758118E-16
      5.00000000000000E-01
      3.90000000000000E-01   3.90000000000000E-01   0.00000000000000E+00   0.00000000000000E+00   0.00000000000000E+00
      0.00000000000000E+00   0.00000000000000E+00  -2.11931085498689E-16   0.00000000000000E+00   0.00000000000000E+00
      0.00000000000000E+00   0.00000000000000E+00  -3.67512658194589E-04  -1.45942053939404E-24  -3.67512658194589E-04
     -1.45850721788895E-17   7.80000000000000E-01   7.80000000000000E-01   0.00000000000000E+00   0.00000000000000E+00
      3.67512659661950E-04   8.54307678705739E-27   3.67512659661950E-04   2.72329301804277E-16
      5.16666666666667E-01
      4.03000000000000E-01   4.03000000000000E-01   0.00000000000000E+00   0.00000000000000E+00   0.00000000000000E+00
      0.00000000000000E+00   0.00000000000000E+00  -1.97030982926930E-16   0.00000000000000E+00   0.00000000000000E+00
      0.00000000000000E+00   0.00000000000000E+00  -4.18913391177366E-04  -3.06784316870264E-24  -4.18913391177366E-04
     -1.91144462872604E-17   7.80000000000000E-01   7.80000000000000E-01   0.00000000000000E+00   0.00000000000000E+00
      4.18913392255285E-04   3.54608553135184E-27   4.18913392255285E-04   2.67875324321778E-16
      5.33333333333333E-01
      4.16000000000000E-01   4.16000000000000E-01   0.00000000000000E+00   0.00000000000000E+00   0.00000000000000E+00
      0.00000000000000E+00   0.00000000000000E+00  -1.81854369326453E-16   0.00000000000000E+00   0.00000000000000E+00
      0.00000000000000E+00   0.00000000000000E+00  -4.72955559603057E-04  -1.54728269971601E-25  -4.72955559603057E-04
     -2.36195542226379E-17   7.80000000000000E-01   7.80000000000000E-01   0.00000000000000E+00   0.00000000000000E+00
      4.72955560409179E-04   1.20345492793966E-27   4.72955560409179E-04   2.63417722899624E-16
      5.50000000000000E-01
      4.29000000000000E-01   4.29000000000000E-01   0.00000000000000E+00   0.00000000000000E+00   0.00000000000000E+00
      0.00000000000000E+00   0.00000000000000E+00  -1.66417881764699E-16   0.00000000000000E+00   0.00000000000000E+00
      0.00000000000000E+00   0.00000000000000E+00  -5.29437510179772E-04  -3.90669178325893E-25  -5.29437510179772E-04
     -2.81025055770100E-17   7.80000000000000E-01   7.80000000000000E-01   0.00000000000000E+00   0.00000000000000E+00
      5.29437510812160E-04   3.59304352334154E-28   5.29437510812160E-04   2.58956054909453E-16
      5.66666666666667E-01
      4.42000000000000E-01   4.42000000000000E-01   0.00000000000000E+00   0.00000000000000E+00   0.00000000000000E+00
      0.00000000000000E+00   0.00000000000000E+00  -1.50737855502473E-16   0.00000000000000E+00   0.00000000000000E+00
      0.00000000000000E+00   0.00000000000000E+00  -5.88175191209058E-04  -3.61863606209058E-25  -5.88175191209058E-04
     -3.25652378484157E-17   7.80000000000000E-01   7.80000000000000E-01   0.00000000000000E+00   0.00000000000000E+00
      5.88175191709458E-04   1.46668150403862E-28   5.88175191709458E-04   2.54489839908999E-16
      5.83333333333333E-01
      4.55000000000000E-01   4.55000000000000E-01   0.00000000000000E+00   0.00000000000000E+00   0.00000000000000E+00
      0.00000000000000E+00   0.00000000000000E+00  -1.34828765376705E-16   0.00000000000000E+00   0.00000000000000E+00
      0.00000000000000E+00   0.00000000000000E+00  -6.48996292975228E-04  -1.88050349832668E-25  -6.48996292975228E-04
     -3.70095362536789E-17   7.80000000000000E-01   7.80000000000000E-01   0.00000000000000E+00   0.00000000000000E+00
      6.48996293376517E-04   1.28073719588350E-28   6.48996293376517E-04   2.50018699807609E-16
      6.00000000000000E-01
      4.68000000000000E-01   4.68000000000000E-01   0.00000000000000E+00   0.00000000000000E+00   0.00000000000000E+00
      0.00000000000000E+00   0.00000000000000E+00  -1.18704505133617E-16   0.00000000000000E+00   0.00000000000000E+00
      0.00000000000000E+00   0.00000000000000E+00  -7.11741385591420E-04  -1.40897017797631E-25  -7.11741385591420E-04
     -4.14370318142001E-17   7.80000000000000E-01   7.80000000000000E-01   0.00000000000000E+00   0.00000000000000E+00
      7.11741385921772E-04   1.26826181946338E-28   7.11741385921772E-04   2.45542257023772E-16
      6.16666666666667E-01
      4.81000000000000E-01   4.81000000000000E-01   0.00000000000000E+00   0.00000000000000E+00   0.00000000000000E+00
      0.00000000000000E+00   0.00000000000000E+00  -1.02377967573415E-16   0.00000000000000E+00   0.00000000000000E+00
      0.00000000000000E+00   0.00000000000000E+00  -7.76262984691446E-04   4.03019532395928E-27  -7.76262984691446E-04
     -4.58492596822657E-17   7.80000000000000E-01   7.80000000000000E-01   0.00000000000000E+00   0.00000000000000E+00
      7.76262984965049E-04   1.07580323345235E-28   7.76262984965049E-04   2.41060173480693E-16
      6.33333333333334E-01
      4.94000000000000E-01   4.94000000000000E-01   0.00000000000000E+00   0.00000000000000E+00   0.00000000000000E+00
      0.00000000000000E+00   0.00000000000000E+00  -8.58613117168443E-17   0.00000000000000E+00   0.00000000000000E+00
      0.00000000000000E+00   0.00000000000000E+00  -8.42422660351652E-04   1.14964727704983E-26  -8.42422660351652E-04
     -5.02476160353681E-17   7.80000000000000E-01   7.80000000000000E-01   0.00000000000000E+00   0.00000000000000E+00
      8.42422660585136E-04   8.36310976427031E-29   8.42422660585136E-04   2.36572155294578E-16
      6.50000000000000E-01
      5.07000000000000E-01   5.07000000000000E-01   0.00000000000000E+00   0.00000000000000E+00   0.00000000000000E+00
      0.00000000000000E+00   0.00000000000000E+00  -6.91658255790543E-17   0.00000000000000E+00   0.00000000000000E+00
      0.00000000000000E+00   0.00000000000000E+00  -9.10092074844588E-04   9.05349920932466E-27  -9.10092074844588E-04
     -5.46334322537247E-17   7.80000000000000E-01   7.80000000000000E-01   0.00000000000000E+00   0.00000000000000E+00
      9.10092075044265E-04   5.89802121105984E-29   9.10092075044265E-04   2.32077948631372E-16
      6.66666666666667E-01
      5.20000000000000E-01   5.20000000000000E-01   0.00000000000000E+00   0.00000000000000E+00   0.00000000000000E+00
      0.00000000000000E+00   0.00000000000000E+00  -5.23022275293379E-17   0.00000000000000E+00   0.00000000000000E+00
      0.00000000000000E+00   0.00000000000000E+00  -9.79150782593614E-04   4.08084560967778E-27  -9.79150782593614E-04
     -5.90079341303719E-17   7.80000000000000E-01   7.80000000000000E-01   0.00000000000000E+00   0.00000000000000E+00
      9.79150782766100E-04   3.96652220709912E-29   9.79150782766100E-04   2.27577332887415E-16
      6.83333333333334E-01
      5.33000000000000E-01   5.33000000000000E-01   0.00000000000000E+00   0.00000000000000E+00   0.00000000000000E+00
      0.00000000000000E+00   0.00000000000000E+00  -3.52806664010643E-17   0.00000000000000E+00   0.00000000000000E+00
      0.00000000000000E+00   0.00000000000000E+00  -1.04948571997588E-03   1.47377329754097E-27  -1.04948571997588E-03
     -6.33722569459789E-17   7.80000000000000E-01   7.80000000000000E-01   0.00000000000000E+00   0.00000000000000E+00
      1.04948572012595E-03   2.57163200543440E-29   1.04948572012595E-03   2.23070123528538E-16
      7.00000000000001E-01
      5.46000000000000E-01   5.46000000000000E-01   0.00000000000000E+00   0.00000000000000E+00   0.00000000000000E+00
      0.00000000000000E+00   0.00000000000000E+00  -1.81105622791532E-17   0.00000000000000E+00   0.00000000000000E+00
      0.00000000000000E+00   0.00000000000000E+00  -1.12099144336245E-03   3.14025889894755E-28  -1.12099144336245E-03
     -6.77274794770918E-17   7.80000000000000E-01   7.80000000000000E-01   0.00000000000000E+00   0.00000000000000E+00
      1.12099144349354E-03   1.60709240001204E-29   1.12099144349354E-03   2.18556177176584E-16
      7.16666666666667E-01
      5.59000000000000E-01   5.59000000000000E-01   0.00000000000000E+00   0.00000000000000E+00   0.00000000000000E+00
      0.00000000000000E+00   0.00000000000000E+00  -8.00772324373880E-19   0.00000000000000E+00   0.00000000000000E+00
      0.00000000000000E+00   0.00000000000000E+00  -1.19356908000027E-03  -2.94195787684054E-28  -1.19356908000027E-03
     -7.20746057805650E-17   7.80000000000000E-01   7.80000000000000E-01   0.00000000000000E+00   0.00000000000000E+00
      1.19356908011549E-03   9.99815620485598E-30   1.19356908011549E-03   2.14035390320202E-16
      7.33333333333334E-01
      5.72000000000001E-01   5.72000000000001E-01   0.00000000000000E+00   0.00000000000000E+00   0.00000000000000E+00
      0.00000000000000E+00   0.00000000000000E+00   1.66402848362758E-17   0.00000000000000E+00   0.00000000000000E+00
      0.00000000000000E+00   0.00000000000000E+00  -1.26712609973603E-03  -5.11069403179574E-28  -1.26712609973603E-03
     -7.64145681303789E-17   7.80000000000000E-01   7.80000000000000E-01   0.00000000000000E+00   0.00000000000000E+00
      1.26712609983757E-03   6.07572288050856E-30   1.26712609983757E-03   2.09507689584185E-16
      7.50000000000001E-01
      5.85000000000001E-01   5.85000000000001E-01   0.00000000000000E+00   0.00000000000000E+00   0.00000000000000E+00
      0.00000000000000E+00   0.00000000000000E+00   3.42049060583520E-17   0.00000000000000E+00   0.00000000000000E+00
      0.00000000000000E+00   0.00000000000000E+00  -1.34157557586738E-03  -3.41452285098749E-28  -1.34157557586738E-03
     -8.07482360813552E-17   7.80000000000000E-01   7.80000000000000E-01   0.00000000000000E+00   0.00000000000000E+00
      1.34157557595716E-03   3.51589784552019E-30   1.34157557595716E-03   2.04973081070502E-16
      7.66666666666667E-01
      5.98000000000001E-01   5.98000000000001E-01   0.00000000000000E+00   0.00000000000000E+00   0.00000000000000E+00
      0.00000000000000E+00   0.00000000000000E+00   5.18854755921468E-17   0.00000000000000E+00   0.00000000000000E+00
      0.00000000000000E+00   0.00000000000000E+00  -1.41683706711996E-03  -2.02173246021044E-28  -1.41683706711996E-03
     -8.50764197579172E-17   7.80000000000000E-01   7.80000000000000E-01   0.00000000000000E+00   0.00000000000000E+00
      1.41683706719969E-03   1.88469025354243E-30   1.41683706719969E-03   2.00431468190946E-16
      7.83333333333334E-01
      6.11000000000001E-01   6.11000000000001E-01   0.00000000000000E+00   0.00000000000000E+00   0.00000000000000E+00
      0.00000000000000E+00   0.00000000000000E+00   6.96749505874600E-17   0.00000000000000E+00   0.00000000000000E+00
      0.00000000000000E+00   0.00000000000000E+00  -1.49283512112074E-03  -2.28010512833749E-28  -1.49283512112074E-03
     -8.93998658681813E-17   7.80000000000000E-01   7.80000000000000E-01   0.00000000000000E+00   0.00000000000000E+00
      1.49283512119169E-03   1.01298797704348E-30   1.49283512119169E-03   1.95882827911695E-16
      8.00000000000001E-01
      6.24000000000001E-01   6.24000000000001E-01   0.00000000000000E+00   0.00000000000000E+00   0.00000000000000E+00
      0.00000000000000E+00   0.00000000000000E+00   8.75673003303813E-17   0.00000000000000E+00   0.00000000000000E+00