DF-ISE text

Info {
  version   = 1.0
  type      = xyplot
  datasets  = [
    "time"
    "gate OuterVoltage" "gate InnerVoltage" "gate QuasiFermiPotential" "gate DisplacementCurrent" "gate eCurrent"
    "gate hCurrent" "gate TotalCurrent" "gate Charge" "source OuterVoltage" "source InnerVoltage"
    "source QuasiFermiPotential" "source DisplacementCurrent" "source eCurrent" "source hCurrent" "source TotalCurrent"
    "source Charge" "drain OuterVoltage" "drain InnerVoltage" "drain QuasiFermiPotential" "drain DisplacementCurrent"
    "drain eCurrent" "drain hCurrent" "drain TotalCurrent" "drain Charge" ]
  functions = [
    Time
    OuterVoltage InnerVoltage QuasiFermiPotential DisplacementCurrent eCurrent
    hCurrent TotalCurrent Charge OuterVoltage InnerVoltage
    QuasiFermiPotential DisplacementCurrent eCurrent hCurrent TotalCurrent
    Charge OuterVoltage InnerVoltage QuasiFermiPotential DisplacementCurrent
    eCurrent hCurrent TotalCurrent Charge ]
}

Data {
      0.00000000000000E+00
      0.00000000000000E+00   0.00000000000000E+00   0.00000000000000E+00   0.00000000000000E+00   0.00000000000000E+00
      0.00000000000000E+00   0.00000000000000E+00   4.67518911742916E-16   0.00000000000000E+00   0.00000000000000E+00
      0.00000000000000E+00   0.00000000000000E+00   3.31606133165570E-08  -2.19929543845228E-17   3.31606132945640E-08
     -1.10435193266488E-16  -6.50000000000000E-01  -6.50000000000000E-01   0.00000000000000E+00   0.00000000000000E+00
     -3.31606133306619E-08   3.60749487323938E-17  -3.31606132945869E-08  -3.58268549648035E-16
      1.66666666666667E-02
     -1.08333333333333E-02  -1.08333333333333E-02   0.00000000000000E+00   0.00000000000000E+00   0.00000000000000E+00
      0.00000000000000E+00   0.00000000000000E+00   4.59180542905177E-16   0.00000000000000E+00   0.00000000000000E+00
      0.00000000000000E+00   0.00000000000000E+00   4.88830541503751E-08  -1.54201160707191E-13   4.88828999492143E-08
     -1.06106676857675E-16  -6.50000000000000E-01  -6.50000000000000E-01   0.00000000000000E+00   0.00000000000000E+00
     -4.88830602717874E-08   2.24577041222467E-15  -4.88830580260170E-08  -3.54276119181800E-16
      3.33333333333333E-02
     -2.16666666666667E-02  -2.16666666666667E-02   0.00000000000000E+00   0.00000000000000E+00   0.00000000000000E+00
      0.00000000000000E+00   0.00000000000000E+00   4.50817754851862E-16   0.00000000000000E+00   0.00000000000000E+00
      0.00000000000000E+00   0.00000000000000E+00   7.20119533476957E-08  -3.32198115393803E-13   7.20116211495803E-08
     -1.01763578930807E-16  -6.50000000000000E-01  -6.50000000000000E-01   0.00000000000000E+00   0.00000000000000E+00
     -7.20119497923579E-08  -2.89166610691476E-15  -7.20119526840240E-08  -3.50279084998110E-16
      5.00000000000000E-02
     -3.25000000000000E-02  -3.25000000000000E-02   0.00000000000000E+00   0.00000000000000E+00   0.00000000000000E+00
      0.00000000000000E+00   0.00000000000000E+00   4.42428485473150E-16   0.00000000000000E+00   0.00000000000000E+00
      0.00000000000000E+00   0.00000000000000E+00   1.06004113524537E-07  -3.93239772879851E-16   1.06004113131298E-07
     -9.74054307249964E-17  -6.50000000000000E-01  -6.50000000000000E-01   0.00000000000000E+00   0.00000000000000E+00
     -1.06004113055943E-07  -8.65663666586239E-16  -1.06004113921607E-07  -3.46277479003712E-16
      6.66666666666667E-02
     -4.33333333333333E-02  -4.33333333333333E-02   0.00000000000000E+00   0.00000000000000E+00   0.00000000000000E+00
      0.00000000000000E+00   0.00000000000000E+00   4.34010296024460E-16   0.00000000000000E+00   0.00000000000000E+00
      0.00000000000000E+00   0.00000000000000E+00   1.55907066421140E-07  -1.12219458575687E-15   1.55907065298945E-07
     -9.30319096296191E-17  -6.50000000000000E-01  -6.50000000000000E-01   0.00000000000000E+00   0.00000000000000E+00
     -1.55907066688285E-07   7.85736613941406E-16  -1.55907065902548E-07  -3.42271333205953E-16
      8.33333333333333E-02
     -5.41666666666667E-02  -5.41666666666667E-02   0.00000000000000E+00   0.00000000000000E+00   0.00000000000000E+00
      0.00000000000000E+00   0.00000000000000E+00   4.25560242898756E-16   0.00000000000000E+00   0.00000000000000E+00
      0.00000000000000E+00   0.00000000000000E+00   2.29073986588543E-07  -6.69868325370012E-16   2.29073985918675E-07
     -8.86428846381574E-17  -6.50000000000000E-01  -6.50000000000000E-01   0.00000000000000E+00   0.00000000000000E+00
     -2.29073986408701E-07  -7.75635746242294E-17  -2.29073986486264E-07  -3.38260679333259E-16
      1.00000000000000E-01
     -6.50000000000000E-02  -6.50000000000000E-02   0.00000000000000E+00   0.00000000000000E+00   0.00000000000000E+00
      0.00000000000000E+00   0.00000000000000E+00   4.17074699847144E-16   0.00000000000000E+00   0.00000000000000E+00
      0.00000000000000E+00   0.00000000000000E+00   3.36186344277361E-07  -1.24864409379314E-15   3.36186343028717E-07
     -8.42384692766947E-17  -6.50000000000000E-01  -6.50000000000000E-01   0.00000000000000E+00   0.00000000000000E+00
     -3.36186343345430E-07  -2.70650209243013E-16  -3.36186343616080E-07  -3.34245548251923E-16
      1.16666666666667E-01
     -7.58333333333333E-02  -7.58333333333333E-02   0.00000000000000E+00   0.00000000000000E+00   0.00000000000000E+00
      0.00000000000000E+00   0.00000000000000E+00   4.08549114340745E-16   0.00000000000000E+00   0.00000000000000E+00
      0.00000000000000E+00   0.00000000000000E+00   4.92705106258177E-07  -1.18747926469957E-15   4.92705105070698E-07
     -7.98190824838580E-17  -6.50000000000000E-01  -6.50000000000000E-01   0.00000000000000E+00   0.00000000000000E+00
     -4.92705105514082E-07  -8.16087045205038E-17  -4.92705105595691E-07  -3.30225969034960E-16
      1.33333333333333E-01
     -8.66666666666667E-02  -8.66666666666667E-02   0.00000000000000E+00   0.00000000000000E+00   0.00000000000000E+00
      0.00000000000000E+00   0.00000000000000E+00   3.99977679185614E-16   0.00000000000000E+00   0.00000000000000E+00
      0.00000000000000E+00   0.00000000000000E+00   7.20908801092321E-07   3.08879373079221E-16   7.20908801401200E-07
     -7.53855179247840E-17  -6.50000000000000E-01  -6.50000000000000E-01   0.00000000000000E+00   0.00000000000000E+00
     -7.20908801268954E-07  -5.23782666505783E-16  -7.20908801792737E-07  -3.26201967582179E-16
      1.50000000000000E-01
     -9.75000000000000E-02  -9.75000000000000E-02   0.00000000000000E+00   0.00000000000000E+00   0.00000000000000E+00
      0.00000000000000E+00   0.00000000000000E+00   3.91352898511001E-16   0.00000000000000E+00   0.00000000000000E+00
      0.00000000000000E+00   0.00000000000000E+00   1.05271655604393E-06  -3.43367586838106E-15   1.05271655261025E-06
     -7.09390212855544E-17  -6.50000000000000E-01  -6.50000000000000E-01   0.00000000000000E+00   0.00000000000000E+00
     -1.05271655455134E-06   1.57092380190888E-15  -1.05271655298041E-06  -3.22173564601597E-16
      1.66666666666667E-01
     -1.08333333333333E-01  -1.08333333333333E-01   0.00000000000000E+00   0.00000000000000E+00   0.00000000000000E+00
      0.00000000000000E+00   0.00000000000000E+00   3.82665028431224E-16   0.00000000000000E+00   0.00000000000000E+00
      0.00000000000000E+00   0.00000000000000E+00   1.53352742828628E-06  -3.37284417440724E-15   1.53352742491344E-06
     -6.64813735105073E-17  -6.50000000000000E-01  -6.50000000000000E-01   0.00000000000000E+00   0.00000000000000E+00
     -1.53352742628333E-06   3.60512472975999E-16  -1.53352742592282E-06  -3.18140772563411E-16
      1.83333333333333E-01
     -1.19166666666667E-01  -1.19166666666667E-01   0.00000000000000E+00   0.00000000000000E+00   0.00000000000000E+00
      0.00000000000000E+00   0.00000000000000E+00   3.73901379926307E-16   0.00000000000000E+00   0.00000000000000E+00
      0.00000000000000E+00   0.00000000000000E+00   2.22731658342214E-06  -6.70058505905211E-15   2.22731657672155E-06
     -6.20149752008387E-17  -6.50000000000000E-01  -6.50000000000000E-01   0.00000000000000E+00   0.00000000000000E+00
     -2.22731658148817E-06   9.32702442037360E-16  -2.22731658055546E-06  -3.14103590868930E-16
      2.00000000000000E-01
     -1.30000000000000E-01  -1.30000000000000E-01   0.00000000000000E+00   0.00000000000000E+00   0.00000000000000E+00
      0.00000000000000E+00   0.00000000000000E+00   3.65045488991476E-16   0.00000000000000E+00   0.00000000000000E+00
      0.00000000000000E+00   0.00000000000000E+00   3.22318656469814E-06  -1.40783235223906E-14   3.22318655061982E-06
     -5.75429233412665E-17  -6.50000000000000E-01  -6.50000000000000E-01   0.00000000000000E+00   0.00000000000000E+00
     -3.22318656391336E-06   8.09343709249916E-16  -3.22318656310401E-06  -3.10061997977516E-16
      2.16666666666667E-01
     -1.40833333333333E-01  -1.40833333333333E-01   0.00000000000000E+00   0.00000000000000E+00   0.00000000000000E+00
      0.00000000000000E+00   0.00000000000000E+00   3.56076190496667E-16   0.00000000000000E+00   0.00000000000000E+00
      0.00000000000000E+00   0.00000000000000E+00   4.64344983006681E-06  -3.60924592659086E-14   4.64344979397435E-06
     -5.30690663523916E-17  -6.50000000000000E-01  -6.50000000000000E-01   0.00000000000000E+00   0.00000000000000E+00
     -4.64344982936130E-06   7.14604040548800E-16  -4.64344982864670E-06  -3.06015938968609E-16
      2.33333333333333E-01
     -1.51666666666667E-01  -1.51666666666667E-01   0.00000000000000E+00   0.00000000000000E+00   0.00000000000000E+00
      0.00000000000000E+00   0.00000000000000E+00   3.46966675175358E-16   0.00000000000000E+00   0.00000000000000E+00
      0.00000000000000E+00   0.00000000000000E+00   6.65311848479828E-06  -8.50688538280486E-14   6.65311839972942E-06
     -4.85980185313521E-17  -6.50000000000000E-01  -6.50000000000000E-01   0.00000000000000E+00   0.00000000000000E+00
     -6.65311848501562E-06   5.08102991256701E-16  -6.65311848450752E-06  -3.01965307118556E-16
      2.50000000000000E-01
     -1.62500000000000E-01  -1.62500000000000E-01   0.00000000000000E+00   0.00000000000000E+00   0.00000000000000E+00
      0.00000000000000E+00   0.00000000000000E+00   3.37683643529081E-16   0.00000000000000E+00   0.00000000000000E+00
      0.00000000000000E+00   0.00000000000000E+00   9.47052474775354E-06  -1.87316775533384E-13   9.47052456043677E-06
     -4.41351135612778E-17  -6.50000000000000E-01  -6.50000000000000E-01   0.00000000000000E+00   0.00000000000000E+00
     -9.47052474728073E-06   4.55099843634066E-16  -9.47052474682563E-06  -2.97909918115690E-16
      2.66666666666667E-01
     -1.73333333333333E-01  -1.73333333333333E-01   0.00000000000000E+00   0.00000000000000E+00   0.00000000000000E+00
      0.00000000000000E+00   0.00000000000000E+00   3.28186634267676E-16   0.00000000000000E+00   0.00000000000000E+00
      0.00000000000000E+00   0.00000000000000E+00   1.33791632960324E-05  -3.72506304371191E-13   1.33791629235261E-05
     -3.96862852176549E-17  -6.50000000000000E-01  -6.50000000000000E-01   0.00000000000000E+00   0.00000000000000E+00
     -1.33791632956029E-05  -1.99914352482561E-16  -1.33791632958028E-05  -2.93849474639210E-16
      2.83333333333333E-01
     -1.84166666666667E-01  -1.84166666666667E-01   0.00000000000000E+00   0.00000000000000E+00   0.00000000000000E+00
      0.00000000000000E+00   0.00000000000000E+00   3.18427336294526E-16   0.00000000000000E+00   0.00000000000000E+00
      0.00000000000000E+00   0.00000000000000E+00   1.87431723897068E-05  -6.77329698146948E-13   1.87431717123771E-05
     -3.52578924461863E-17  -6.50000000000000E-01  -6.50000000000000E-01   0.00000000000000E+00   0.00000000000000E+00
     -1.87431723896911E-05  -5.74631465957368E-16  -1.87431723902657E-05  -2.89783515328908E-16
      3.00000000000000E-01
     -1.95000000000000E-01  -1.95000000000000E-01   0.00000000000000E+00   0.00000000000000E+00   0.00000000000000E+00
      0.00000000000000E+00   0.00000000000000E+00   3.08347681265955E-16   0.00000000000000E+00   0.00000000000000E+00
      0.00000000000000E+00   0.00000000000000E+00   2.60381454453874E-05  -1.12909570833696E-12   2.60381443162917E-05
     -3.08565798682958E-17  -6.50000000000000E-01  -6.50000000000000E-01   0.00000000000000E+00   0.00000000000000E+00
     -2.60381454456161E-05  -1.70812707106230E-18  -2.60381454456178E-05  -2.85711328014195E-16
      3.16666666666667E-01
     -2.05833333333333E-01  -2.05833333333333E-01   0.00000000000000E+00   0.00000000000000E+00   0.00000000000000E+00
      0.00000000000000E+00   0.00000000000000E+00   2.97870953740646E-16   0.00000000000000E+00   0.00000000000000E+00
      0.00000000000000E+00   0.00000000000000E+00   3.59531376917537E-05  -1.72533869551501E-12   3.59531359664150E-05
     -2.64895051171464E-17  -6.50000000000000E-01  -6.50000000000000E-01   0.00000000000000E+00   0.00000000000000E+00
     -3.59531376937254E-05   5.67049965409118E-16  -3.59531376931583E-05  -2.81631737562970E-16
      3.33333333333333E-01
     -2.16666666666667E-01  -2.16666666666667E-01   0.00000000000000E+00   0.00000000000000E+00   0.00000000000000E+00
      0.00000000000000E+00   0.00000000000000E+00   2.86973362380196E-16   0.00000000000000E+00   0.00000000000000E+00
      0.00000000000000E+00   0.00000000000000E+00   4.86802751287334E-05  -7.69563212636331E-12   4.86802674331013E-05
     -2.21631752106181E-17  -6.50000000000000E-01  -6.50000000000000E-01   0.00000000000000E+00   0.00000000000000E+00
     -4.86802751255326E-05  -2.06131926173120E-14  -4.86802751461458E-05  -2.77543939502922E-16
      3.50000000000000E-01
     -2.27500000000000E-01  -2.27500000000000E-01   0.00000000000000E+00   0.00000000000000E+00   0.00000000000000E+00
      0.00000000000000E+00   0.00000000000000E+00   2.75934045855121E-16   0.00000000000000E+00   0.00000000000000E+00
      0.00000000000000E+00   0.00000000000000E+00   6.17507219217484E-05  -2.10248454868504E-11   6.17507008969029E-05
     -1.78630887660872E-17  -6.50000000000000E-01  -6.50000000000000E-01   0.00000000000000E+00   0.00000000000000E+00
     -6.17507219353854E-05  -3.66884548773080E-13  -6.17507223022699E-05  -2.73450943044679E-16
      3.66666666666667E-01
     -2.38333333333333E-01  -2.38333333333333E-01   0.00000000000000E+00   0.00000000000000E+00   0.00000000000000E+00
      0.00000000000000E+00   0.00000000000000E+00   2.64676229180314E-16   0.00000000000000E+00   0.00000000000000E+00
      0.00000000000000E+00   0.00000000000000E+00   7.61369873661193E-05  -1.45070912518513E-11   7.61369728590280E-05
     -1.35774862590343E-17  -6.50000000000000E-01  -6.50000000000000E-01   0.00000000000000E+00   0.00000000000000E+00
     -7.61369873638666E-05  -4.42051243717192E-14  -7.61369874080717E-05  -2.69351308876906E-16
      3.83333333333333E-01
     -2.49166666666667E-01  -2.49166666666667E-01   0.00000000000000E+00   0.00000000000000E+00   0.00000000000000E+00
      0.00000000000000E+00   0.00000000000000E+00   2.53048798215395E-16   0.00000000000000E+00   0.00000000000000E+00
      0.00000000000000E+00   0.00000000000000E+00   9.24909654935382E-05  -3.40111602743526E-12   9.24909620924222E-05
     -9.33272997545994E-18  -6.50000000000000E-01  -6.50000000000000E-01   0.00000000000000E+00   0.00000000000000E+00
     -9.24909654835082E-05  -7.81430309353251E-15  -9.24909654913225E-05  -2.65244381774870E-16
      4.00000000000000E-01
     -2.60000000000000E-01  -2.60000000000000E-01   0.00000000000000E+00   0.00000000000000E+00   0.00000000000000E+00
      0.00000000000000E+00   0.00000000000000E+00   2.41063547117910E-16   0.00000000000000E+00   0.00000000000000E+00
      0.00000000000000E+00   0.00000000000000E+00   1.11129490653435E-04  -1.13754541833193E-12   1.11129489515890E-04
     -5.12534565042019E-18  -6.50000000000000E-01  -6.50000000000000E-01   0.00000000000000E+00   0.00000000000000E+00
     -1.11129490656789E-04   2.50914089580732E-15  -1.11129490654280E-04  -2.61128815929234E-16
      4.16666666666667E-01
     -2.70833333333333E-01  -2.70833333333333E-01   0.00000000000000E+00   0.00000000000000E+00   0.00000000000000E+00
      0.00000000000000E+00   0.00000000000000E+00   2.28704664207362E-16   0.00000000000000E+00   0.00000000000000E+00
      0.00000000000000E+00   0.00000000000000E+00   1.31611366982175E-04  -1.81685531103584E-12   1.31611365165320E-04
     -9.56195845700936E-19  -6.50000000000000E-01  -6.50000000000000E-01   0.00000000000000E+00   0.00000000000000E+00
     -1.31611367002060E-04   1.51582248883010E-14  -1.31611366986902E-04  -2.57005935878007E-16
      4.33333333333333E-01
     -2.81666666666667E-01  -2.81666666666667E-01   0.00000000000000E+00   0.00000000000000E+00   0.00000000000000E+00
      0.00000000000000E+00   0.00000000000000E+00   2.16017779738609E-16   0.00000000000000E+00   0.00000000000000E+00
      0.00000000000000E+00   0.00000000000000E+00   1.54337512679530E-04  -6.32623055351706E-13   1.54337512046907E-04
      3.17837313870753E-18  -6.50000000000000E-01  -6.50000000000000E-01   0.00000000000000E+00   0.00000000000000E+00
     -1.54337512683270E-04   2.26316882795294E-15  -1.54337512681007E-04  -2.52873215433938E-16
      4.50000000000000E-01
     -2.92500000000000E-01  -2.92500000000000E-01   0.00000000000000E+00   0.00000000000000E+00   0.00000000000000E+00
      0.00000000000000E+00   0.00000000000000E+00   2.02952772510637E-16   0.00000000000000E+00   0.00000000000000E+00
      0.00000000000000E+00   0.00000000000000E+00   1.78732554881235E-04  -1.23692868500219E-12   1.78732553644307E-04
      7.27620634353794E-18  -6.50000000000000E-01  -6.50000000000000E-01   0.00000000000000E+00   0.00000000000000E+00
     -1.78732554818987E-04  -5.08653927491908E-14  -1.78732554869852E-04  -2.48733899388526E-16
      4.66666666666667E-01
     -3.03333333333333E-01  -3.03333333333333E-01   0.00000000000000E+00   0.00000000000000E+00   0.00000000000000E+00
      0.00000000000000E+00   0.00000000000000E+00   1.89577912354287E-16   0.00000000000000E+00   0.00000000000000E+00
      0.00000000000000E+00   0.00000000000000E+00   2.05078830021732E-04  -3.92581534566799E-13   2.05078829629151E-04
      1.13416981910892E-17  -6.50000000000000E-01  -6.50000000000000E-01   0.00000000000000E+00   0.00000000000000E+00
     -2.05078830022696E-04   9.93624728444206E-16  -2.05078830021702E-04  -2.44584680507630E-16
      4.83333333333333E-01
     -3.14166666666667E-01  -3.14166666666667E-01   0.00000000000000E+00   0.00000000000000E+00   0.00000000000000E+00
      0.00000000000000E+00   0.00000000000000E+00   1.75898162804627E-16   0.00000000000000E+00   0.00000000000000E+00
      0.00000000000000E+00   0.00000000000000E+00   2.33275290350668E-04  -3.44396533844228E-13   2.33275290006271E-04
      1.53763827856342E-17  -6.50000000000000E-01  -6.50000000000000E-01   0.00000000000000E+00   0.00000000000000E+00
     -2.33275290337761E-04  -4.47894011592004E-15  -2.33275290342240E-04  -2.40425869287229E-16
      5.00000000000000E-01
     -3.25000000000000E-01  -3.25000000000000E-01   0.00000000000000E+00   0.00000000000000E+00   0.00000000000000E+00
      0.00000000000000E+00   0.00000000000000E+00   1.61854589907500E-16   0.00000000000000E+00   0.00000000000000E+00
      0.00000000000000E+00   0.00000000000000E+00   2.62890415022579E-04  -4.87358759943211E-13   2.62890414535220E-04
      1.93802096849607E-17  -6.50000000000000E-01  -6.50000000000000E-01   0.00000000000000E+00   0.00000000000000E+00
     -2.62890415022230E-04   1.18298483760359E-15  -2.62890415021047E-04  -2.36261433525956E-16
      5.16666666666667E-01
     -3.35833333333333E-01  -3.35833333333333E-01   0.00000000000000E+00   0.00000000000000E+00   0.00000000000000E+00
      0.00000000000000E+00   0.00000000000000E+00   1.47548113500774E-16   0.00000000000000E+00   0.00000000000000E+00
      0.00000000000000E+00   0.00000000000000E+00   2.94174988192280E-04  -2.23241939959581E-13   2.94174987969038E-04
      2.33565012569714E-17  -6.50000000000000E-01  -6.50000000000000E-01   0.00000000000000E+00   0.00000000000000E+00
     -2.94174988193361E-04   9.38260352846946E-16  -2.94174988192422E-04  -2.32086104779890E-16
      5.33333333333333E-01
     -3.46666666666667E-01  -3.46666666666667E-01   0.00000000000000E+00   0.00000000000000E+00   0.00000000000000E+00
      0.00000000000000E+00   0.00000000000000E+00   1.32992495651473E-16   0.00000000000000E+00   0.00000000000000E+00
      0.00000000000000E+00   0.00000000000000E+00   3.27050996090567E-04  -1.87548230069554E-13   3.27050995903019E-04
      2.73068310977976E-17  -6.50000000000000E-01  -6.50000000000000E-01   0.00000000000000E+00   0.00000000000000E+00
     -3.27050996090758E-04   5.08125553929745E-16  -3.27050996090249E-04  -2.27899794370735E-16
      5.50000000000000E-01
     -3.57500000000000E-01  -3.57500000000000E-01   0.00000000000000E+00   0.00000000000000E+00   0.00000000000000E+00
      0.00000000000000E+00   0.00000000000000E+00   1.18108135573932E-16   0.00000000000000E+00   0.00000000000000E+00
      0.00000000000000E+00   0.00000000000000E+00   3.61118688523084E-04  -2.53583160011942E-13   3.61118688269501E-04
      3.12313644977945E-17  -6.50000000000000E-01  -6.50000000000000E-01   0.00000000000000E+00   0.00000000000000E+00
     -3.61118688505212E-04  -7.22840090878146E-15  -3.61118688512440E-04  -2.23709146010829E-16
      5.66666666666667E-01
     -3.68333333333333E-01  -3.68333333333333E-01   0.00000000000000E+00   0.00000000000000E+00   0.00000000000000E+00
      0.00000000000000E+00   0.00000000000000E+00   1.02958827308973E-16   0.00000000000000E+00   0.00000000000000E+00
      0.00000000000000E+00   0.00000000000000E+00   3.96432171000310E-04  -1.38003142125357E-13   3.96432170862307E-04
      3.51322538066289E-17  -6.50000000000000E-01  -6.50000000000000E-01   0.00000000000000E+00   0.00000000000000E+00
     -3.96432171004978E-04   6.35860366924740E-15  -3.96432170998619E-04  -2.19510081402676E-16
      5.83333333333333E-01
     -3.79166666666667E-01  -3.79166666666667E-01   0.00000000000000E+00   0.00000000000000E+00   0.00000000000000E+00
      0.00000000000000E+00   0.00000000000000E+00   8.76103317025196E-17   0.00000000000000E+00   0.00000000000000E+00
      0.00000000000000E+00   0.00000000000000E+00   4.33077732932992E-04  -1.21388035705666E-13   4.33077732811604E-04
      3.90116245451641E-17  -6.50000000000000E-01  -6.50000000000000E-01   0.00000000000000E+00   0.00000000000000E+00
     -4.33077732932482E-04  -1.87502006673377E-15  -4.33077732934357E-04  -2.15298336563896E-16
      6.00000000000000E-01
     -3.90000000000000E-01  -3.90000000000000E-01   0.00000000000000E+00   0.00000000000000E+00   0.00000000000000E+00
      0.00000000000000E+00   0.00000000000000E+00   7.20461698757360E-17   0.00000000000000E+00   0.00000000000000E+00
      0.00000000000000E+00   0.00000000000000E+00   4.70905467768219E-04  -1.00769267011274E-13   4.70905467667450E-04
      4.28705483998674E-17  -6.50000000000000E-01  -6.50000000000000E-01   0.00000000000000E+00   0.00000000000000E+00
     -4.70905467768312E-04  -1.75827460272743E-15  -4.70905467770070E-04  -2.11076667736312E-16
      6.16666666666667E-01
     -4.00833333333333E-01  -4.00833333333333E-01   0.00000000000000E+00   0.00000000000000E+00   0.00000000000000E+00
      0.00000000000000E+00   0.00000000000000E+00   5.62086611247525E-17   0.00000000000000E+00   0.00000000000000E+00
      0.00000000000000E+00   0.00000000000000E+00   5.09645538822727E-04  -1.00097780626018E-13   5.09645538722629E-04
      4.67096285394651E-17  -6.50000000000000E-01  -6.50000000000000E-01   0.00000000000000E+00   0.00000000000000E+00
     -5.09645538830992E-04   6.35008825099725E-15  -5.09645538824642E-04  -2.06851827620335E-16
      6.33333333333334E-01
     -4.11666666666667E-01  -4.11666666666667E-01   0.00000000000000E+00   0.00000000000000E+00   0.00000000000000E+00
      0.00000000000000E+00   0.00000000000000E+00   4.01380861993897E-17   0.00000000000000E+00   0.00000000000000E+00
      0.00000000000000E+00   0.00000000000000E+00   5.49291603749280E-04  -7.57466025363188E-14   5.49291603673534E-04
      5.05304317295687E-17  -6.50000000000000E-01  -6.50000000000000E-01   0.00000000000000E+00   0.00000000000000E+00
     -5.49291603745887E-04  -3.25814200791556E-15  -5.49291603749145E-04  -2.02620303626491E-16
      6.50000000000000E-01
     -4.22500000000000E-01  -4.22500000000000E-01   0.00000000000000E+00   0.00000000000000E+00   0.00000000000000E+00
      0.00000000000000E+00   0.00000000000000E+00   2.38985009951599E-17   0.00000000000000E+00   0.00000000000000E+00
      0.00000000000000E+00   0.00000000000000E+00   5.89918895307514E-04  -6.73210279654263E-14   5.89918895240193E-04
      5.43347063733773E-17  -6.50000000000000E-01  -6.50000000000000E-01   0.00000000000000E+00   0.00000000000000E+00
     -5.89918895306841E-04  -2.90140048757410E-16  -5.89918895307131E-04  -1.98376592549994E-16
      6.66666666666667E-01
     -4.33333333333334E-01  -4.33333333333334E-01   0.00000000000000E+00   0.00000000000000E+00   0.00000000000000E+00
      0.00000000000000E+00   0.00000000000000E+00   7.51344171682426E-18   0.00000000000000E+00   0.00000000000000E+00
      0.00000000000000E+00   0.00000000000000E+00   6.31503735665635E-04  -5.96561782485181E-14   6.31503735605979E-04
      5.81237410710616E-17  -6.50000000000000E-01  -6.50000000000000E-01   0.00000000000000E+00   0.00000000000000E+00
     -6.31503735665134E-04  -1.12491294124101E-16  -6.31503735665247E-04  -1.94118870583953E-16
      6.83333333333334E-01
     -4.44166666666667E-01  -4.44166666666667E-01   0.00000000000000E+00   0.00000000000000E+00   0.00000000000000E+00
      0.00000000000000E+00   0.00000000000000E+00  -9.07358680639658E-18   0.00000000000000E+00   0.00000000000000E+00
      0.00000000000000E+00   0.00000000000000E+00   6.73828857286776E-04  -4.91046229802679E-14   6.73828857237672E-04
      6.18981071920470E-17  -6.50000000000000E-01  -6.50000000000000E-01   0.00000000000000E+00   0.00000000000000E+00
     -6.73828857287349E-04   1.62490177590347E-15  -6.73828857285724E-04  -1.89856907623101E-16
      7.00000000000001E-01
     -4.55000000000000E-01  -4.55000000000000E-01   0.00000000000000E+00   0.00000000000000E+00   0.00000000000000E+00
      0.00000000000000E+00   0.00000000000000E+00  -2.58645696061946E-17   0.00000000000000E+00   0.00000000000000E+00
      0.00000000000000E+00   0.00000000000000E+00   7.16804915455097E-04  -4.28230385438761E-14   7.16804915412274E-04
      6.56587735429749E-17  -6.50000000000000E-01  -6.50000000000000E-01   0.00000000000000E+00   0.00000000000000E+00
     -7.16804915454174E-04  -9.99227349844862E-16  -7.16804915455173E-04  -1.85591683797969E-16
      7.16666666666667E-01
     -4.65833333333334E-01  -4.65833333333334E-01   0.00000000000000E+00   0.00000000000000E+00   0.00000000000000E+00
      0.00000000000000E+00   0.00000000000000E+00  -4.28363144700358E-17   0.00000000000000E+00   0.00000000000000E+00
      0.00000000000000E+00   0.00000000000000E+00   7.60406692779145E-04  -3.68932123739204E-14   7.60406692742252E-04
      6.94068517090752E-17  -6.50000000000000E-01  -6.50000000000000E-01   0.00000000000000E+00   0.00000000000000E+00
     -7.60406692777787E-04  -3.02548634121087E-16  -7.60406692778089E-04  -1.81320410779881E-16
      7.33333333333334E-01
     -4.76666666666667E-01  -4.76666666666667E-01   0.00000000000000E+00   0.00000000000000E+00   0.00000000000000E+00
      0.00000000000000E+00   0.00000000000000E+00  -5.99538371723376E-17   0.00000000000000E+00   0.00000000000000E+00
      0.00000000000000E+00   0.00000000000000E+00   8.04645164480032E-04  -3.15237244377511E-14   8.04645164448509E-04
      7.31434886172667E-17  -6.50000000000000E-01  -6.50000000000000E-01   0.00000000000000E+00   0.00000000000000E+00
     -8.04645164480033E-04   1.26789835159256E-16  -8.04645164479906E-04  -1.77039176240572E-16
      7.50000000000001E-01
     -4.87500000000000E-01  -4.87500000000000E-01   0.00000000000000E+00   0.00000000000000E+00   0.00000000000000E+00
      0.00000000000000E+00   0.00000000000000E+00  -7.71853739974896E-17   0.00000000000000E+00   0.00000000000000E+00
      0.00000000000000E+00   0.00000000000000E+00   8.49534174711901E-04  -2.83732355790104E-14   8.49534174683528E-04
      7.68697586841997E-17  -6.50000000000000E-01  -6.50000000000000E-01   0.00000000000000E+00   0.00000000000000E+00
     -8.49534174711797E-04   3.93931884004182E-16  -8.49534174711403E-04  -1.72744432636740E-16
      7.66666666666667E-01
     -4.98333333333334E-01  -4.98333333333334E-01   0.00000000000000E+00   0.00000000000000E+00   0.00000000000000E+00
      0.00000000000000E+00   0.00000000000000E+00  -9.45302367975133E-17   0.00000000000000E+00   0.00000000000000E+00
      0.00000000000000E+00   0.00000000000000E+00   8.95018429259170E-04  -2.37672684986615E-14   8.95018429235403E-04
      8.05864558952646E-17  -6.50000000000000E-01  -6.50000000000000E-01   0.00000000000000E+00   0.00000000000000E+00
     -8.95018429258857E-04  -2.57557779259975E-16  -8.95018429259114E-04  -1.68437788213050E-16
      7.83333333333334E-01
     -5.09166666666667E-01  -5.09166666666667E-01   0.00000000000000E+00   0.00000000000000E+00   0.00000000000000E+00
      0.00000000000000E+00   0.00000000000000E+00  -1.12042348477909E-16   0.00000000000000E+00   0.00000000000000E+00
      0.00000000000000E+00   0.00000000000000E+00   9.40919085189726E-04  -2.11465370460304E-14   9.40919085168579E-04
      8.42939522469844E-17  -6.50000000000000E-01  -6.50000000000000E-01   0.00000000000000E+00   0.00000000000000E+00
     -9.40919085187328E-04   1.00858227649440E-14  -9.40919085177242E-04  -1.64132531263512E-16
      8.00000000000001E-01
     -5.20000000000001E-01  -5.20000000000001E-01   0.00000000000000E+00   0.00000000000000E+00   0.00000000000000E+00
      0.00000000000000E+00   0.00000000000000E+00  -1.29701315832455E-16   0.00000000000000E+00   0.00000000000000E+00