DF-ISE text

Info {
  version   = 1.0
  type      = xyplot
  datasets  = [
    "time"
    "gate OuterVoltage" "gate InnerVoltage" "gate QuasiFermiPotential" "gate DisplacementCurrent" "gate eCurrent"
    "gate hCurrent" "gate TotalCurrent" "gate Charge" "source OuterVoltage" "source InnerVoltage"
    "source QuasiFermiPotential" "source DisplacementCurrent" "source eCurrent" "source hCurrent" "source TotalCurrent"
    "source Charge" "drain OuterVoltage" "drain InnerVoltage" "drain QuasiFermiPotential" "drain DisplacementCurrent"
    "drain eCurrent" "drain hCurrent" "drain TotalCurrent" "drain Charge" ]
  functions = [
    Time
    OuterVoltage InnerVoltage QuasiFermiPotential DisplacementCurrent eCurrent
    hCurrent TotalCurrent Charge OuterVoltage InnerVoltage
    QuasiFermiPotential DisplacementCurrent eCurrent hCurrent TotalCurrent
    Charge OuterVoltage InnerVoltage QuasiFermiPotential DisplacementCurrent
    eCurrent hCurrent TotalCurrent Charge ]
}

Data {
      0.00000000000000E+00
      0.00000000000000E+00   0.00000000000000E+00   0.00000000000000E+00   0.00000000000000E+00   0.00000000000000E+00
      0.00000000000000E+00   0.00000000000000E+00  -5.40138288428368E-16   0.00000000000000E+00   0.00000000000000E+00
      0.00000000000000E+00   0.00000000000000E+00  -3.90953490939804E-08  -3.91173775221853E-27  -3.90953490939804E-08
      1.10952871561813E-16   9.00000000000000E-01   9.00000000000000E-01   0.00000000000000E+00   0.00000000000000E+00
      3.90953490939601E-08  -2.25347591532374E-24   3.90953490939601E-08   4.30383774333171E-16
      1.66666666666667E-02
      1.50000000000000E-02   1.50000000000000E-02   0.00000000000000E+00   0.00000000000000E+00   0.00000000000000E+00
      0.00000000000000E+00   0.00000000000000E+00  -5.29369838959791E-16   0.00000000000000E+00   0.00000000000000E+00
      0.00000000000000E+00   0.00000000000000E+00  -6.66572392101017E-08  -4.17249107371325E-19  -6.66572392105190E-08
      1.05263970800913E-16   9.00000000000000E-01   9.00000000000000E-01   0.00000000000000E+00   0.00000000000000E+00
      6.66581906115642E-08   5.90969441178131E-19   6.66581906121552E-08   4.25318527566761E-16
      3.33333333333333E-02
      3.00000000000000E-02   3.00000000000000E-02   0.00000000000000E+00   0.00000000000000E+00   0.00000000000000E+00
      0.00000000000000E+00   0.00000000000000E+00  -5.18565750932065E-16   0.00000000000000E+00   0.00000000000000E+00
      0.00000000000000E+00   0.00000000000000E+00  -1.13495125331686E-07   5.16707391864709E-25  -1.13495125331686E-07
      9.95520091315460E-17   9.00000000000000E-01   9.00000000000000E-01   0.00000000000000E+00   0.00000000000000E+00
      1.13495125332660E-07   4.01198749545434E-21   1.13495125332664E-07   4.20247194288267E-16
      5.00000000000000E-02
      4.50000000000000E-02   4.50000000000000E-02   0.00000000000000E+00   0.00000000000000E+00   0.00000000000000E+00
      0.00000000000000E+00   0.00000000000000E+00  -5.07722236077918E-16   0.00000000000000E+00   0.00000000000000E+00
      0.00000000000000E+00   0.00000000000000E+00  -1.92925526033814E-07   2.80887022409308E-21  -1.92925526033811E-07
      9.38163673182763E-17   9.00000000000000E-01   9.00000000000000E-01   0.00000000000000E+00   0.00000000000000E+00
      1.92925544914267E-07   4.03843724447319E-19   1.92925544914671E-07   4.15169735702886E-16
      6.66666666666667E-02
      6.00000000000000E-02   6.00000000000000E-02   0.00000000000000E+00   0.00000000000000E+00   0.00000000000000E+00
      0.00000000000000E+00   0.00000000000000E+00  -4.96834153204649E-16   0.00000000000000E+00   0.00000000000000E+00
      0.00000000000000E+00   0.00000000000000E+00  -3.27302090399094E-07   1.08694628068605E-21  -3.27302090399093E-07
      8.80566524341651E-17   9.00000000000000E-01   9.00000000000000E-01   0.00000000000000E+00   0.00000000000000E+00
      3.27302109313460E-07   5.17806860570829E-19   3.27302109313978E-07   4.10086112454474E-16
      8.33333333333333E-02
      7.50000000000000E-02   7.50000000000000E-02   0.00000000000000E+00   0.00000000000000E+00   0.00000000000000E+00
      0.00000000000000E+00   0.00000000000000E+00  -4.85894324714189E-16   0.00000000000000E+00   0.00000000000000E+00
      0.00000000000000E+00   0.00000000000000E+00  -5.53936351631773E-07   3.11811702919211E-22  -5.53936351631773E-07
      8.22728379538213E-17   9.00000000000000E-01   9.00000000000000E-01   0.00000000000000E+00   0.00000000000000E+00
      5.53936369191872E-07   5.84492741236482E-19   5.53936369192457E-07   4.04996284519483E-16
      1.00000000000000E-01
      9.00000000000000E-02   9.00000000000000E-02   0.00000000000000E+00   0.00000000000000E+00   0.00000000000000E+00
      0.00000000000000E+00   0.00000000000000E+00  -4.74892500304101E-16   0.00000000000000E+00   0.00000000000000E+00
      0.00000000000000E+00   0.00000000000000E+00  -9.34656837030045E-07   5.98471825522939E-23  -9.34656837030045E-07
      7.64654620645187E-17   9.00000000000000E-01   9.00000000000000E-01   0.00000000000000E+00   0.00000000000000E+00
      9.34656859409155E-07   3.85940866656789E-19   9.34656859409541E-07   3.99900210812873E-16
      1.16666666666667E-01
      1.05000000000000E-01   1.05000000000000E-01   0.00000000000000E+00   0.00000000000000E+00   0.00000000000000E+00
      0.00000000000000E+00   0.00000000000000E+00  -4.63813813800014E-16   0.00000000000000E+00   0.00000000000000E+00
      0.00000000000000E+00   0.00000000000000E+00  -1.57088486850069E-06  -5.56268943780989E-23  -1.57088486850069E-06
      7.06359009097021E-17   9.00000000000000E-01   9.00000000000000E-01   0.00000000000000E+00   0.00000000000000E+00
      1.57088489519764E-06   7.68578864395955E-20   1.57088489519771E-06   3.94797848610605E-16
      1.33333333333333E-01
      1.20000000000000E-01   1.20000000000000E-01   0.00000000000000E+00   0.00000000000000E+00   0.00000000000000E+00
      0.00000000000000E+00   0.00000000000000E+00  -4.52636557599452E-16   0.00000000000000E+00   0.00000000000000E+00
      0.00000000000000E+00   0.00000000000000E+00  -2.62661910685544E-06  -7.31959325261989E-23  -2.62661910685544E-06
      6.47867286636663E-17   9.00000000000000E-01   9.00000000000000E-01   0.00000000000000E+00   0.00000000000000E+00
      2.62661914361150E-06   2.89966288859454E-20   2.62661914361153E-06   3.89689149479354E-16
      1.50000000000000E-01
      1.35000000000000E-01   1.35000000000000E-01   0.00000000000000E+00   0.00000000000000E+00   0.00000000000000E+00
      0.00000000000000E+00   0.00000000000000E+00  -4.41329147783000E-16   0.00000000000000E+00   0.00000000000000E+00
      0.00000000000000E+00   0.00000000000000E+00  -4.36167380790723E-06  -7.25882400767786E-24  -4.36167380790723E-06
      5.89221589349461E-17   9.00000000000000E-01   9.00000000000000E-01   0.00000000000000E+00   0.00000000000000E+00
      4.36167390511783E-06   9.84830549195713E-22   4.36167390511783E-06   3.84574045625820E-16
      1.66666666666667E-01
      1.50000000000000E-01   1.50000000000000E-01   0.00000000000000E+00   0.00000000000000E+00   0.00000000000000E+00
      0.00000000000000E+00   0.00000000000000E+00  -4.29846379359144E-16   0.00000000000000E+00   0.00000000000000E+00
      0.00000000000000E+00   0.00000000000000E+00  -7.17582190591621E-06   6.31928398718800E-24  -7.17582190591621E-06
      5.30485201357493E-17   9.00000000000000E-01   9.00000000000000E-01   0.00000000000000E+00   0.00000000000000E+00
      7.17582232366165E-06   4.72873916854654E-26   7.17582232366165E-06   3.79452428849494E-16
      1.83333333333333E-01
      1.65000000000000E-01   1.65000000000000E-01   0.00000000000000E+00   0.00000000000000E+00   0.00000000000000E+00
      0.00000000000000E+00   0.00000000000000E+00  -4.18125584433557E-16   0.00000000000000E+00   0.00000000000000E+00
      0.00000000000000E+00   0.00000000000000E+00  -1.16594497213806E-05   1.71137997324336E-23  -1.16594497213806E-05
      4.71746416427964E-17   9.00000000000000E-01   9.00000000000000E-01   0.00000000000000E+00   0.00000000000000E+00
      1.16594513930508E-05   1.46184507430958E-22   1.16594513930508E-05   3.74324120228895E-16
      2.00000000000000E-01
      1.80000000000000E-01   1.80000000000000E-01   0.00000000000000E+00   0.00000000000000E+00   0.00000000000000E+00
      0.00000000000000E+00   0.00000000000000E+00  -4.06084140719483E-16   0.00000000000000E+00   0.00000000000000E+00
      0.00000000000000E+00   0.00000000000000E+00  -1.86369374928226E-05   2.71345353618922E-23  -1.86369374928226E-05
      4.13119304205886E-17   9.00000000000000E-01   9.00000000000000E-01   0.00000000000000E+00   0.00000000000000E+00
      1.86369429680368E-05   1.53261948404350E-22   1.86369429680368E-05   3.69188826693714E-16
      2.16666666666667E-01
      1.95000000000000E-01   1.95000000000000E-01   0.00000000000000E+00   0.00000000000000E+00   0.00000000000000E+00
      0.00000000000000E+00   0.00000000000000E+00  -3.93620483035123E-16   0.00000000000000E+00   0.00000000000000E+00
      0.00000000000000E+00   0.00000000000000E+00  -2.91792991829617E-05   3.42796011275496E-23  -2.91792991829617E-05
      3.54738740609295E-17   9.00000000000000E-01   9.00000000000000E-01   0.00000000000000E+00   0.00000000000000E+00
      2.91793135148946E-05   1.30944320145264E-22   2.91793135148946E-05   3.64046091398355E-16
      2.33333333333333E-01
      2.10000000000000E-01   2.10000000000000E-01   0.00000000000000E+00   0.00000000000000E+00   0.00000000000000E+00
      0.00000000000000E+00   0.00000000000000E+00  -3.80619863370812E-16   0.00000000000000E+00   0.00000000000000E+00
      0.00000000000000E+00   0.00000000000000E+00  -4.45694879489236E-05   2.74942126654238E-23  -4.45694879489236E-05
      2.96748753393119E-17   9.00000000000000E-01   9.00000000000000E-01   0.00000000000000E+00   0.00000000000000E+00
      4.45695175072847E-05  -1.15817520883335E-23   4.45695175072847E-05   3.58895250303074E-16
      2.50000000000000E-01
      2.25000000000000E-01   2.25000000000000E-01   0.00000000000000E+00   0.00000000000000E+00   0.00000000000000E+00
      0.00000000000000E+00   0.00000000000000E+00  -3.66959814550361E-16   0.00000000000000E+00   0.00000000000000E+00
      0.00000000000000E+00   0.00000000000000E+00  -6.62778124175089E-05   2.73067672882333E-23  -6.62778124175089E-05
      2.39289674072122E-17   9.00000000000000E-01   9.00000000000000E-01   0.00000000000000E+00   0.00000000000000E+00
      6.62778605052848E-05  -4.07943279864309E-22   6.62778605052848E-05   3.53735376134527E-16
      2.66666666666667E-01
      2.40000000000000E-01   2.40000000000000E-01   0.00000000000000E+00   0.00000000000000E+00   0.00000000000000E+00
      0.00000000000000E+00   0.00000000000000E+00  -3.52565719453774E-16   0.00000000000000E+00   0.00000000000000E+00
      0.00000000000000E+00   0.00000000000000E+00  -9.52472063763175E-05   3.06323740204538E-23  -9.52472063763175E-05
      1.82468102427048E-17   9.00000000000000E-01   9.00000000000000E-01   0.00000000000000E+00   0.00000000000000E+00
      9.52472962735444E-05  -3.65767743721053E-22   9.52472962735444E-05   3.48565539817526E-16
      2.83333333333333E-01
      2.55000000000000E-01   2.55000000000000E-01   0.00000000000000E+00   0.00000000000000E+00   0.00000000000000E+00
      0.00000000000000E+00   0.00000000000000E+00  -3.37653792684985E-16   0.00000000000000E+00   0.00000000000000E+00
      0.00000000000000E+00   0.00000000000000E+00  -1.28893672017209E-04   6.23765493915056E-23  -1.28893672017209E-04
      1.26081997376454E-17   9.00000000000000E-01   9.00000000000000E-01   0.00000000000000E+00   0.00000000000000E+00
      1.28893681444876E-04  -3.22567080416875E-23   1.28893681444876E-04   3.43386564203261E-16
      3.00000000000000E-01
      2.70000000000000E-01   2.70000000000000E-01   0.00000000000000E+00   0.00000000000000E+00   0.00000000000000E+00
      0.00000000000000E+00   0.00000000000000E+00  -3.22027667209576E-16   0.00000000000000E+00   0.00000000000000E+00
      0.00000000000000E+00   0.00000000000000E+00  -1.69374104906588E-04   4.79321094697713E-24  -1.69374104906588E-04
      7.03332167655028E-18   9.00000000000000E-01   9.00000000000000E-01   0.00000000000000E+00   0.00000000000000E+00
      1.69374152139204E-04   1.99234563507024E-24   1.69374152139204E-04   3.38197053424447E-16
      3.16666666666667E-01
      2.85000000000000E-01   2.85000000000000E-01   0.00000000000000E+00   0.00000000000000E+00   0.00000000000000E+00
      0.00000000000000E+00   0.00000000000000E+00  -3.05698841512551E-16   0.00000000000000E+00   0.00000000000000E+00
      0.00000000000000E+00   0.00000000000000E+00  -2.16610372175950E-04   1.46920843299254E-24  -2.16610372175950E-04
      1.51976566886653E-18   9.00000000000000E-01   9.00000000000000E-01   0.00000000000000E+00   0.00000000000000E+00
      2.16610400351902E-04  -3.47200447317731E-25   2.16610400351902E-04   3.32996389059145E-16
      3.33333333333333E-01
      3.00000000000000E-01   3.00000000000000E-01   0.00000000000000E+00   0.00000000000000E+00   0.00000000000000E+00
      0.00000000000000E+00   0.00000000000000E+00  -2.88698134056016E-16   0.00000000000000E+00   0.00000000000000E+00
      0.00000000000000E+00   0.00000000000000E+00  -2.70297197141159E-04   3.92697875557914E-25  -2.70297197141159E-04
     -3.93678316531613E-18   9.00000000000000E-01   9.00000000000000E-01   0.00000000000000E+00   0.00000000000000E+00
      2.70297213585183E-04  -5.60026049608438E-26   2.70297213585183E-04   3.27784005633995E-16
      3.50000000000000E-01
      3.15000000000000E-01   3.15000000000000E-01   0.00000000000000E+00   0.00000000000000E+00   0.00000000000000E+00
      0.00000000000000E+00   0.00000000000000E+00  -2.71064495914915E-16   0.00000000000000E+00   0.00000000000000E+00
      0.00000000000000E+00   0.00000000000000E+00  -3.30013413378023E-04  -9.67675112442934E-25  -3.30013413378023E-04
     -9.34110012369353E-18   9.00000000000000E-01   9.00000000000000E-01   0.00000000000000E+00   0.00000000000000E+00
      3.30013423462228E-04   8.25337628859682E-26   3.30013423462228E-04   3.22559395322242E-16
      3.66666666666667E-01
      3.30000000000000E-01   3.30000000000000E-01   0.00000000000000E+00   0.00000000000000E+00   0.00000000000000E+00
      0.00000000000000E+00   0.00000000000000E+00  -2.52839677338380E-16   0.00000000000000E+00   0.00000000000000E+00
      0.00000000000000E+00   0.00000000000000E+00  -3.95299107204035E-04  -2.15851106020714E-26  -3.95299107204035E-04
     -1.46980660543933E-17   9.00000000000000E-01   9.00000000000000E-01   0.00000000000000E+00   0.00000000000000E+00
      3.95299113720548E-04   5.21637119244567E-26   3.95299113720548E-04   3.17322069295424E-16
      3.83333333333333E-01
      3.45000000000000E-01   3.45000000000000E-01   0.00000000000000E+00   0.00000000000000E+00   0.00000000000000E+00
      0.00000000000000E+00   0.00000000000000E+00  -2.34064848428715E-16   0.00000000000000E+00   0.00000000000000E+00
      0.00000000000000E+00   0.00000000000000E+00  -4.65691591948670E-04  -3.59394122392700E-25  -4.65691591948670E-04
     -2.00122546531849E-17   9.00000000000000E-01   9.00000000000000E-01   0.00000000000000E+00   0.00000000000000E+00
      4.65691596386018E-04   1.89653647538503E-26   4.65691596386018E-04   3.12071568118575E-16
      4.00000000000000E-01
      3.60000000000000E-01   3.60000000000000E-01   0.00000000000000E+00   0.00000000000000E+00   0.00000000000000E+00
      0.00000000000000E+00   0.00000000000000E+00  -2.14778926167951E-16   0.00000000000000E+00   0.00000000000000E+00
      0.00000000000000E+00   0.00000000000000E+00  -5.40749377859937E-04  -1.01844597586061E-25  -5.40749377859937E-04
     -2.52878984808650E-17   9.00000000000000E-01   9.00000000000000E-01   0.00000000000000E+00   0.00000000000000E+00
      5.40749381000033E-04   3.53312715038665E-27   5.40749381000033E-04   3.06807464173611E-16
      4.16666666666667E-01
      3.75000000000000E-01   3.75000000000000E-01   0.00000000000000E+00   0.00000000000000E+00   0.00000000000000E+00
      0.00000000000000E+00   0.00000000000000E+00  -1.95018589365368E-16   0.00000000000000E+00   0.00000000000000E+00
      0.00000000000000E+00   0.00000000000000E+00  -6.20059747140009E-04  -2.68091785046866E-25  -6.20059747140009E-04
     -3.05288162693274E-17   9.00000000000000E-01   9.00000000000000E-01   0.00000000000000E+00   0.00000000000000E+00
      6.20059943312899E-04  -6.05006359020714E-26   6.20059943312899E-04   3.01529343144999E-16
      4.33333333333333E-01
      3.90000000000000E-01   3.90000000000000E-01   0.00000000000000E+00   0.00000000000000E+00   0.00000000000000E+00
      0.00000000000000E+00   0.00000000000000E+00  -1.74817632012850E-16   0.00000000000000E+00   0.00000000000000E+00
      0.00000000000000E+00   0.00000000000000E+00  -7.03239794903585E-04  -3.91744522044901E-25  -7.03239794903585E-04
     -3.57384493762572E-17   9.00000000000000E-01   9.00000000000000E-01   0.00000000000000E+00   0.00000000000000E+00
      7.03240399540698E-04  -2.34850125555926E-27   7.03240399540698E-04   2.96236848265101E-16
      4.50000000000000E-01
      4.05000000000000E-01   4.05000000000000E-01   0.00000000000000E+00   0.00000000000000E+00   0.00000000000000E+00
      0.00000000000000E+00   0.00000000000000E+00  -1.54207623441248E-16   0.00000000000000E+00   0.00000000000000E+00
      0.00000000000000E+00   0.00000000000000E+00  -7.89938729662270E-04  -1.43199333972148E-25  -7.89938729662270E-04
     -4.09199302830686E-17   9.00000000000000E-01   9.00000000000000E-01   0.00000000000000E+00   0.00000000000000E+00
      7.89938731037172E-04  -2.00949163584973E-27   7.89938731037172E-04   2.90929643604669E-16
      4.66666666666667E-01
      4.20000000000000E-01   4.20000000000000E-01   0.00000000000000E+00   0.00000000000000E+00   0.00000000000000E+00
      0.00000000000000E+00   0.00000000000000E+00  -1.33217244960099E-16   0.00000000000000E+00   0.00000000000000E+00
      0.00000000000000E+00   0.00000000000000E+00  -8.79828116900055E-04  -6.70160263387201E-28  -8.79828116900055E-04
     -4.60760795499209E-17   9.00000000000000E-01   9.00000000000000E-01   0.00000000000000E+00   0.00000000000000E+00
      8.79828117990589E-04  -1.49791832610875E-27   8.79828117990589E-04   2.85607524136654E-16
      4.83333333333333E-01
      4.35000000000000E-01   4.35000000000000E-01   0.00000000000000E+00   0.00000000000000E+00   0.00000000000000E+00
      0.00000000000000E+00   0.00000000000000E+00  -1.11874086355609E-16   0.00000000000000E+00   0.00000000000000E+00
      0.00000000000000E+00   0.00000000000000E+00  -9.72607311390908E-04   1.07043638870863E-26  -9.72607311390908E-04
     -5.12094557970269E-17   9.00000000000000E-01   9.00000000000000E-01   0.00000000000000E+00   0.00000000000000E+00
      9.72607312270437E-04  -1.09364432363110E-27   9.72607312270437E-04   2.80270277687178E-16
      5.00000000000000E-01
      4.50000000000000E-01   4.50000000000000E-01   0.00000000000000E+00   0.00000000000000E+00   0.00000000000000E+00
      0.00000000000000E+00   0.00000000000000E+00  -9.02034660024767E-17   0.00000000000000E+00   0.00000000000000E+00
      0.00000000000000E+00   0.00000000000000E+00  -1.06799749171241E-03   2.97843756545372E-26  -1.06799749171241E-03
     -5.63224228075130E-17   9.00000000000000E-01   9.00000000000000E-01   0.00000000000000E+00   0.00000000000000E+00
      1.06799749242940E-03  -7.69468720924323E-28   1.06799749242940E-03   2.74917784275238E-16
      5.16666666666667E-01
      4.65000000000000E-01   4.65000000000000E-01   0.00000000000000E+00   0.00000000000000E+00   0.00000000000000E+00
      0.00000000000000E+00   0.00000000000000E+00  -6.82290098629763E-17   0.00000000000000E+00   0.00000000000000E+00
      0.00000000000000E+00   0.00000000000000E+00  -1.16573915026186E-03   2.58679663400056E-26  -1.16573915026186E-03
     -6.14171303421318E-17   9.00000000000000E-01   9.00000000000000E-01   0.00000000000000E+00   0.00000000000000E+00
      1.16573915085278E-03  -5.24575236448830E-28   1.16573915085278E-03   2.69550012077690E-16
      5.33333333333333E-01
      4.80000000000000E-01   4.80000000000000E-01   0.00000000000000E+00   0.00000000000000E+00   0.00000000000000E+00
      0.00000000000000E+00   0.00000000000000E+00  -4.59728577867604E-17   0.00000000000000E+00   0.00000000000000E+00
      0.00000000000000E+00   0.00000000000000E+00  -1.26559069065338E-03   3.40980830887433E-26  -1.26559069065338E-03
     -6.64955377012807E-17   9.00000000000000E-01   9.00000000000000E-01   0.00000000000000E+00   0.00000000000000E+00
      1.26559069114608E-03  -3.39149985684574E-28   1.26559069114608E-03   2.64167008814542E-16
      5.50000000000000E-01
      4.95000000000000E-01   4.95000000000000E-01   0.00000000000000E+00   0.00000000000000E+00   0.00000000000000E+00
      0.00000000000000E+00   0.00000000000000E+00  -2.34555513747615E-17   0.00000000000000E+00   0.00000000000000E+00
      0.00000000000000E+00   0.00000000000000E+00  -1.36732905139249E-03   9.93751350617640E-27  -1.36732905139249E-03
     -7.15594757414526E-17   9.00000000000000E-01   9.00000000000000E-01   0.00000000000000E+00   0.00000000000000E+00
      1.36732905180688E-03  -2.12859908897775E-28   1.36732905180688E-03   2.58768890316172E-16
      5.66666666666667E-01
      5.10000000000000E-01   5.10000000000000E-01   0.00000000000000E+00   0.00000000000000E+00   0.00000000000000E+00
      0.00000000000000E+00   0.00000000000000E+00  -6.96345838197086E-19   0.00000000000000E+00   0.00000000000000E+00
      0.00000000000000E+00   0.00000000000000E+00  -1.47074725866263E-03   7.73922715138331E-27  -1.47074725866263E-03
     -7.66106205430410E-17   9.00000000000000E-01   9.00000000000000E-01   0.00000000000000E+00   0.00000000000000E+00
      1.47074725901199E-03  -1.27328389678309E-28   1.47074725901199E-03   2.53355828234008E-16
      5.83333333333333E-01
      5.25000000000000E-01   5.25000000000000E-01   0.00000000000000E+00   0.00000000000000E+00   0.00000000000000E+00
      0.00000000000000E+00   0.00000000000000E+00   2.22869688093335E-17   0.00000000000000E+00   0.00000000000000E+00
      0.00000000000000E+00   0.00000000000000E+00  -1.57565300328191E-03   5.09006691088324E-27  -1.57565300328191E-03
     -8.16505035830044E-17   9.00000000000000E-01   9.00000000000000E-01   0.00000000000000E+00   0.00000000000000E+00
      1.57565300357895E-03  -7.62625260423172E-29   1.57565300357895E-03   2.47928069400271E-16
      6.00000000000000E-01
      5.40000000000000E-01   5.40000000000000E-01   0.00000000000000E+00   0.00000000000000E+00   0.00000000000000E+00
      0.00000000000000E+00   0.00000000000000E+00   4.54782226431397E-17   0.00000000000000E+00   0.00000000000000E+00
      0.00000000000000E+00   0.00000000000000E+00  -1.68186823874975E-03   2.76739242995861E-27  -1.68186823874975E-03
     -8.66805354282169E-17   9.00000000000000E-01   9.00000000000000E-01   0.00000000000000E+00   0.00000000000000E+00
      1.68186823900859E-03  -4.43230323168534E-29   1.68186823900859E-03   2.42485968851444E-16
      6.16666666666667E-01
      5.55000000000000E-01   5.55000000000000E-01   0.00000000000000E+00   0.00000000000000E+00   0.00000000000000E+00
      0.00000000000000E+00   0.00000000000000E+00   6.88623045092295E-17   0.00000000000000E+00   0.00000000000000E+00
      0.00000000000000E+00   0.00000000000000E+00  -1.78922893242469E-03   9.57533805057172E-28  -1.78922893242469E-03
     -9.17020047684283E-17   9.00000000000000E-01   9.00000000000000E-01   0.00000000000000E+00   0.00000000000000E+00
      1.78922893263748E-03  -2.38099254743484E-29   1.78922893263748E-03   2.37029949867709E-16
      6.33333333333334E-01
      5.70000000000000E-01   5.70000000000000E-01   0.00000000000000E+00   0.00000000000000E+00   0.00000000000000E+00
      0.00000000000000E+00   0.00000000000000E+00   9.24246234331168E-17   0.00000000000000E+00   0.00000000000000E+00
      0.00000000000000E+00   0.00000000000000E+00  -1.89758519162881E-03   2.02741359282044E-28  -1.89758519162881E-03
     -9.67160946841864E-17   9.00000000000000E-01   9.00000000000000E-01   0.00000000000000E+00   0.00000000000000E+00
      1.89758519180863E-03  -1.25192534882574E-29   1.89758519180863E-03   2.31560260068158E-16
      6.50000000000000E-01
      5.85000000000000E-01   5.85000000000000E-01   0.00000000000000E+00   0.00000000000000E+00   0.00000000000000E+00
      0.00000000000000E+00   0.00000000000000E+00   1.16152581410471E-16   0.00000000000000E+00   0.00000000000000E+00
      0.00000000000000E+00   0.00000000000000E+00  -2.00679776231757E-03  -5.74769740333962E-29  -2.00679776231757E-03
     -1.01723878439551E-16   9.00000000000000E-01   9.00000000000000E-01   0.00000000000000E+00   0.00000000000000E+00
      2.00679776247670E-03  -7.09148050822707E-30   2.00679776247670E-03   2.26077368632421E-16
      6.66666666666667E-01
      6.00000000000000E-01   6.00000000000000E-01   0.00000000000000E+00   0.00000000000000E+00   0.00000000000000E+00
      0.00000000000000E+00   0.00000000000000E+00   1.40034738057965E-16   0.00000000000000E+00   0.00000000000000E+00
      0.00000000000000E+00   0.00000000000000E+00  -2.11673805200737E-03  -1.48393192873168E-28  -2.11673805200737E-03
     -1.06726315466623E-16   9.00000000000000E-01   9.00000000000000E-01   0.00000000000000E+00   0.00000000000000E+00
      2.11673805214480E-03  -3.12713183396814E-30   2.11673805214480E-03   2.20581911632521E-16
      6.83333333333334E-01
      6.15000000000000E-01   6.15000000000000E-01   0.00000000000000E+00   0.00000000000000E+00   0.00000000000000E+00
      0.00000000000000E+00   0.00000000000000E+00   1.64060097514144E-16   0.00000000000000E+00   0.00000000000000E+00
      0.00000000000000E+00   0.00000000000000E+00  -2.22728946287935E-03  -5.59144957282562E-28  -2.22728946287935E-03
     -1.11724284198838E-16   9.00000000000000E-01   9.00000000000000E-01   0.00000000000000E+00   0.00000000000000E+00
      2.22728946310123E-03  -9.05341555053999E-31   2.22728946310123E-03   2.15074320979802E-16
      7.00000000000001E-01
      6.30000000000000E-01   6.30000000000000E-01   0.00000000000000E+00   0.00000000000000E+00   0.00000000000000E+00
      0.00000000000000E+00   0.00000000000000E+00   1.88218337461836E-16   0.00000000000000E+00   0.00000000000000E+00
      0.00000000000000E+00   0.00000000000000E+00  -2.33834704875897E-03  -1.39978984854690E-28  -2.33834704875897E-03
     -1.16718599178619E-16   9.00000000000000E-01   9.00000000000000E-01   0.00000000000000E+00   0.00000000000000E+00
      2.33834704885920E-03   1.06181137094039E-32   2.33834704885920E-03   2.09554919984944E-16
      7.16666666666667E-01
      6.45000000000001E-01   6.45000000000001E-01   0.00000000000000E+00   0.00000000000000E+00   0.00000000000000E+00
      0.00000000000000E+00   0.00000000000000E+00   2.12501967057676E-16   0.00000000000000E+00   0.00000000000000E+00
      0.00000000000000E+00   0.00000000000000E+00  -2.44981080690050E-03  -8.90645875981886E-29  -2.44981080690050E-03
     -1.21709966522483E-16   9.00000000000000E-01   9.00000000000000E-01   0.00000000000000E+00   0.00000000000000E+00
      2.44981080698618E-03   8.25199703401233E-31   2.44981080698618E-03   2.04024740700209E-16
      7.33333333333334E-01
      6.60000000000001E-01   6.60000000000001E-01   0.00000000000000E+00   0.00000000000000E+00   0.00000000000000E+00
      0.00000000000000E+00   0.00000000000000E+00   2.36901190312720E-16   0.00000000000000E+00   0.00000000000000E+00
      0.00000000000000E+00   0.00000000000000E+00  -2.56159310290008E-03  -4.81824577153399E-29  -2.56159310290008E-03
     -1.26699007635922E-16   9.00000000000000E-01   9.00000000000000E-01   0.00000000000000E+00   0.00000000000000E+00
      2.56159310297427E-03   1.00526000994836E-30   2.56159310297427E-03   1.98483865540978E-16
      7.50000000000001E-01
      6.75000000000001E-01   6.75000000000001E-01   0.00000000000000E+00   0.00000000000000E+00   0.00000000000000E+00
      0.00000000000000E+00   0.00000000000000E+00   2.61409476945926E-16   0.00000000000000E+00   0.00000000000000E+00
      0.00000000000000E+00   0.00000000000000E+00  -2.67361274084994E-03  -3.16858428539992E-29  -2.67361274084994E-03
     -1.31686312323445E-16   9.00000000000000E-01   9.00000000000000E-01   0.00000000000000E+00   0.00000000000000E+00
      2.67361274091565E-03   1.31144267813037E-30   2.67361274091565E-03   1.92933073840529E-16
      7.66666666666667E-01
      6.90000000000001E-01   6.90000000000001E-01   0.00000000000000E+00   0.00000000000000E+00   0.00000000000000E+00
      0.00000000000000E+00   0.00000000000000E+00   2.86021088245088E-16   0.00000000000000E+00   0.00000000000000E+00
      0.00000000000000E+00   0.00000000000000E+00  -2.78579480195703E-03  -1.62719438603432E-29  -2.78579480195703E-03
     -1.36672388427024E-16   9.00000000000000E-01   9.00000000000000E-01   0.00000000000000E+00   0.00000000000000E+00
      2.78579480201311E-03  -5.86958709860301E-30   2.78579480201311E-03   1.87373527767324E-16
      7.83333333333334E-01
      7.05000000000001E-01   7.05000000000001E-01   0.00000000000000E+00   0.00000000000000E+00   0.00000000000000E+00
      0.00000000000000E+00   0.00000000000000E+00   3.10728423642294E-16   0.00000000000000E+00   0.00000000000000E+00
      0.00000000000000E+00   0.00000000000000E+00  -2.89807502278323E-03  -6.34052814659448E-30  -2.89807502278323E-03
     -1.41657697773863E-16   9.00000000000000E-01   9.00000000000000E-01   0.00000000000000E+00   0.00000000000000E+00
      2.89807502283074E-03   7.32126751379198E-32   2.89807502283074E-03   1.81805405403420E-16
      8.00000000000001E-01
      7.20000000000001E-01   7.20000000000001E-01   0.00000000000000E+00   0.00000000000000E+00   0.00000000000000E+00
      0.00000000000000E+00   0.00000000000000E+00   3.35529371700218E-16   0.00000000000000E+00   0.00000000000000E+00