DF-ISE text

Info {
  version   = 1.0
  type      = xyplot
  datasets  = [
    "time"
    "gate OuterVoltage" "gate InnerVoltage" "gate QuasiFermiPotential" "gate DisplacementCurrent" "gate eCurrent"
    "gate hCurrent" "gate TotalCurrent" "gate Charge" "source OuterVoltage" "source InnerVoltage"
    "source QuasiFermiPotential" "source DisplacementCurrent" "source eCurrent" "source hCurrent" "source TotalCurrent"
    "source Charge" "drain OuterVoltage" "drain InnerVoltage" "drain QuasiFermiPotential" "drain DisplacementCurrent"
    "drain eCurrent" "drain hCurrent" "drain TotalCurrent" "drain Charge" ]
  functions = [
    Time
    OuterVoltage InnerVoltage QuasiFermiPotential DisplacementCurrent eCurrent
    hCurrent TotalCurrent Charge OuterVoltage InnerVoltage
    QuasiFermiPotential DisplacementCurrent eCurrent hCurrent TotalCurrent
    Charge OuterVoltage InnerVoltage QuasiFermiPotential DisplacementCurrent
    eCurrent hCurrent TotalCurrent Charge ]
}

Data {
      0.00000000000000E+00
      0.00000000000000E+00   0.00000000000000E+00   0.00000000000000E+00   0.00000000000000E+00   0.00000000000000E+00
      0.00000000000000E+00   0.00000000000000E+00  -9.44596715518476E-16   0.00000000000000E+00   0.00000000000000E+00
      0.00000000000000E+00   0.00000000000000E+00  -2.91776124741528E-08   4.56458675879008E-27  -2.91776124741528E-08
      1.78395833215844E-16   1.50000000000000E+00   1.50000000000000E+00   0.00000000000000E+00   0.00000000000000E+00
      2.91776124673103E-08  -1.24704861305592E-26   2.91776124673103E-08   9.14001155000393E-16
      1.66666666666667E-02
      2.50000000000000E-02   2.50000000000000E-02   0.00000000000000E+00   0.00000000000000E+00   0.00000000000000E+00
      0.00000000000000E+00   0.00000000000000E+00  -9.17776994970723E-16   0.00000000000000E+00   0.00000000000000E+00
      0.00000000000000E+00   0.00000000000000E+00  -7.19364316314982E-08   3.71597101696395E-24  -7.19364316314982E-08
      1.68552337190819E-16   1.50000000000000E+00   1.50000000000000E+00   0.00000000000000E+00   0.00000000000000E+00
      7.19364193386115E-08   4.53013282764391E-24   7.19364193386115E-08   9.01301829601925E-16
      3.33333333333333E-02
      5.00000000000000E-02   5.00000000000000E-02   0.00000000000000E+00   0.00000000000000E+00   0.00000000000000E+00
      0.00000000000000E+00   0.00000000000000E+00  -8.90502964741872E-16   0.00000000000000E+00   0.00000000000000E+00
      0.00000000000000E+00   0.00000000000000E+00  -1.75769363078719E-07   1.01779473261295E-22  -1.75769363078719E-07
      1.58973668934761E-16   1.50000000000000E+00   1.50000000000000E+00   0.00000000000000E+00   0.00000000000000E+00
      1.75769376266326E-07   1.43437644964716E-23   1.75769376266326E-07   8.88608186740117E-16
      5.00000000000000E-02
      7.50000000000000E-02   7.50000000000000E-02   0.00000000000000E+00   0.00000000000000E+00   0.00000000000000E+00
      0.00000000000000E+00   0.00000000000000E+00  -8.62490171601592E-16   0.00000000000000E+00   0.00000000000000E+00
      0.00000000000000E+00   0.00000000000000E+00  -4.23402867543661E-07   3.00630086757242E-24  -4.23402867543661E-07
      1.49690342467856E-16   1.50000000000000E+00   1.50000000000000E+00   0.00000000000000E+00   0.00000000000000E+00
      4.23402866133198E-07  -5.48967960565720E-24   4.23402866133198E-07   8.75927762533231E-16
      6.66666666666667E-02
      1.00000000000000E-01   1.00000000000000E-01   0.00000000000000E+00   0.00000000000000E+00   0.00000000000000E+00
      0.00000000000000E+00   0.00000000000000E+00  -8.33243053165006E-16   0.00000000000000E+00   0.00000000000000E+00
      0.00000000000000E+00   0.00000000000000E+00  -9.94996629996671E-07   8.03167026809790E-26  -9.94996629996671E-07
      1.40734209916169E-16   1.50000000000000E+00   1.50000000000000E+00   0.00000000000000E+00   0.00000000000000E+00
      9.94996629607983E-07  -2.49832001898308E-23   9.94996629607983E-07   8.63276416125040E-16
      8.33333333333333E-02
      1.25000000000000E-01   1.25000000000000E-01   0.00000000000000E+00   0.00000000000000E+00   0.00000000000000E+00
      0.00000000000000E+00   0.00000000000000E+00  -8.01955449004665E-16   0.00000000000000E+00   0.00000000000000E+00
      0.00000000000000E+00   0.00000000000000E+00  -2.24280009873914E-06   9.16216072605609E-20  -2.24280009873905E-06
      1.32133445303187E-16   1.50000000000000E+00   1.50000000000000E+00   0.00000000000000E+00   0.00000000000000E+00
      2.24305465487304E-06  -1.86486541480084E-20   2.24305465487302E-06   8.50684240454472E-16
      1.00000000000000E-01
      1.50000000000000E-01   1.50000000000000E-01   0.00000000000000E+00   0.00000000000000E+00   0.00000000000000E+00
      0.00000000000000E+00   0.00000000000000E+00  -7.67475623260792E-16   0.00000000000000E+00   0.00000000000000E+00
      0.00000000000000E+00   0.00000000000000E+00  -4.75487185850015E-06   1.14616597728937E-19  -4.75487185850003E-06
      1.23905160819227E-16   1.50000000000000E+00   1.50000000000000E+00   0.00000000000000E+00   0.00000000000000E+00
      4.75531844391484E-06  -5.19304458543081E-20   4.75531844391479E-06   8.38200411156000E-16
      1.16666666666667E-01
      1.75000000000000E-01   1.75000000000000E-01   0.00000000000000E+00   0.00000000000000E+00   0.00000000000000E+00
      0.00000000000000E+00   0.00000000000000E+00  -7.28494179880864E-16   0.00000000000000E+00   0.00000000000000E+00
      0.00000000000000E+00   0.00000000000000E+00  -9.29557136681889E-06  -5.09627242843357E-25  -9.29557136681889E-06
      1.16048294148260E-16   1.50000000000000E+00   1.50000000000000E+00   0.00000000000000E+00   0.00000000000000E+00
      9.29557136734267E-06  -2.60966879326108E-21   9.29557136734267E-06   8.25886638133691E-16
      1.33333333333333E-01
      2.00000000000000E-01   2.00000000000000E-01   0.00000000000000E+00   0.00000000000000E+00   0.00000000000000E+00
      0.00000000000000E+00   0.00000000000000E+00  -6.83818245105853E-16   0.00000000000000E+00   0.00000000000000E+00
      0.00000000000000E+00   0.00000000000000E+00  -1.66290845497737E-05  -7.23961650719518E-25  -1.66290845497737E-05
      1.08545145198654E-16   1.50000000000000E+00   1.50000000000000E+00   0.00000000000000E+00   0.00000000000000E+00
      1.66290845509253E-05  -3.41850328548800E-21   1.66290845509253E-05   8.13801002688933E-16
      1.50000000000000E-01
      2.25000000000000E-01   2.25000000000000E-01   0.00000000000000E+00   0.00000000000000E+00   0.00000000000000E+00
      0.00000000000000E+00   0.00000000000000E+00  -6.32680256472228E-16   0.00000000000000E+00   0.00000000000000E+00
      0.00000000000000E+00   0.00000000000000E+00  -2.73021813628556E-05   1.72161437284322E-20  -2.73021813628556E-05
      1.01362710794522E-16   1.50000000000000E+00   1.50000000000000E+00   0.00000000000000E+00   0.00000000000000E+00
      2.73034345168368E-05  -8.65066840698103E-20   2.73034345168367E-05   8.01979091714882E-16
      1.66666666666667E-01
      2.50000000000000E-01   2.50000000000000E-01   0.00000000000000E+00   0.00000000000000E+00   0.00000000000000E+00
      0.00000000000000E+00   0.00000000000000E+00  -5.74720718903897E-16   0.00000000000000E+00   0.00000000000000E+00
      0.00000000000000E+00   0.00000000000000E+00  -4.16180454728493E-05   6.96957598755463E-22  -4.16180454728493E-05
      9.44661231843197E-17   1.50000000000000E+00   1.50000000000000E+00   0.00000000000000E+00   0.00000000000000E+00
      4.16180443945092E-05   7.08867530367910E-21   4.16180443945092E-05   7.90431706943155E-16
      1.83333333333333E-01
      2.75000000000000E-01   2.75000000000000E-01   0.00000000000000E+00   0.00000000000000E+00   0.00000000000000E+00
      0.00000000000000E+00   0.00000000000000E+00  -5.09982709963104E-16   0.00000000000000E+00   0.00000000000000E+00
      0.00000000000000E+00   0.00000000000000E+00  -5.96577263786568E-05   3.00110482818259E-20  -5.96577263786568E-05
      8.78177673100601E-17   1.50000000000000E+00   1.50000000000000E+00   0.00000000000000E+00   0.00000000000000E+00
      5.96577255366969E-05   2.19441312932890E-22   5.96577255366969E-05   7.79148355262253E-16
      2.00000000000000E-01
      3.00000000000000E-01   3.00000000000000E-01   0.00000000000000E+00   0.00000000000000E+00   0.00000000000000E+00
      0.00000000000000E+00   0.00000000000000E+00  -4.38720452205375E-16   0.00000000000000E+00   0.00000000000000E+00
      0.00000000000000E+00   0.00000000000000E+00  -8.13509850590833E-05   8.41317452803119E-22  -8.13509850590833E-05
      8.13819393532143E-17   1.50000000000000E+00   1.50000000000000E+00   0.00000000000000E+00   0.00000000000000E+00
      8.13509803889281E-05  -6.07552235345798E-23   8.13509803889281E-05   7.68106109758483E-16
      2.16666666666667E-01
      3.25000000000000E-01   3.25000000000000E-01   0.00000000000000E+00   0.00000000000000E+00   0.00000000000000E+00
      0.00000000000000E+00   0.00000000000000E+00  -3.61325187082988E-16   0.00000000000000E+00   0.00000000000000E+00
      0.00000000000000E+00   0.00000000000000E+00  -1.06532193475296E-04  -2.48857318419138E-23  -1.06532193475296E-04
      7.51261976546824E-17   1.50000000000000E+00   1.50000000000000E+00   0.00000000000000E+00   0.00000000000000E+00
      1.06532193209589E-04   3.59648075422739E-23   1.06532193209589E-04   7.57274081909772E-16
      2.33333333333333E-01
      3.50000000000000E-01   3.50000000000000E-01   0.00000000000000E+00   0.00000000000000E+00   0.00000000000000E+00
      0.00000000000000E+00   0.00000000000000E+00  -2.78336104449282E-16   0.00000000000000E+00   0.00000000000000E+00
      0.00000000000000E+00   0.00000000000000E+00  -1.35010547450310E-04  -1.27959334874324E-21  -1.35010547450310E-04
      6.90218805304283E-17   1.50000000000000E+00   1.50000000000000E+00   0.00000000000000E+00   0.00000000000000E+00
      1.35010507850766E-04  -3.81028247769953E-23   1.35010507850766E-04   7.46616652542078E-16
      2.50000000000000E-01
      3.75000000000000E-01   3.75000000000000E-01   0.00000000000000E+00   0.00000000000000E+00   0.00000000000000E+00
      0.00000000000000E+00   0.00000000000000E+00  -1.90332668163668E-16   0.00000000000000E+00   0.00000000000000E+00
      0.00000000000000E+00   0.00000000000000E+00  -1.66584037608844E-04   3.38856783222133E-21  -1.66584037608844E-04
      6.30443534043133E-17   1.50000000000000E+00   1.50000000000000E+00   0.00000000000000E+00   0.00000000000000E+00
      1.66583997848319E-04  -1.47267075652305E-22   1.66583997848319E-04   7.36097700634341E-16
      2.66666666666667E-01
      4.00000000000000E-01   4.00000000000000E-01   0.00000000000000E+00   0.00000000000000E+00   0.00000000000000E+00
      0.00000000000000E+00   0.00000000000000E+00  -9.77241855159440E-17   0.00000000000000E+00   0.00000000000000E+00
      0.00000000000000E+00   0.00000000000000E+00  -2.01002267838582E-04   3.87882880619164E-21  -2.01002267838582E-04
      5.71730409358141E-17   1.50000000000000E+00   1.50000000000000E+00   0.00000000000000E+00   0.00000000000000E+00
      2.01002543778427E-04  -2.55413661584706E-21   2.01002543778427E-04   7.25688656916684E-16
      2.83333333333333E-01
      4.25000000000000E-01   4.25000000000000E-01   0.00000000000000E+00   0.00000000000000E+00   0.00000000000000E+00
      0.00000000000000E+00   0.00000000000000E+00  -9.76503364080399E-19   0.00000000000000E+00   0.00000000000000E+00
      0.00000000000000E+00   0.00000000000000E+00  -2.38040232027732E-04   4.27662602240975E-22  -2.38040232027732E-04
      5.13906873882282E-17   1.50000000000000E+00   1.50000000000000E+00   0.00000000000000E+00   0.00000000000000E+00
      2.38040368026059E-04  -1.71042202513505E-22   2.38040368026059E-04   7.15358188079296E-16
      3.00000000000000E-01
      4.50000000000000E-01   4.50000000000000E-01   0.00000000000000E+00   0.00000000000000E+00   0.00000000000000E+00
      0.00000000000000E+00   0.00000000000000E+00   9.94285989779753E-17   0.00000000000000E+00   0.00000000000000E+00
      0.00000000000000E+00   0.00000000000000E+00  -2.77498376959357E-04   5.29981451620691E-20  -2.77498376959357E-04
      4.56829539289862E-17   1.50000000000000E+00   1.50000000000000E+00   0.00000000000000E+00   0.00000000000000E+00
      2.77497972383260E-04  -7.89384972023950E-21   2.77497972383260E-04   7.05075964901480E-16
      3.16666666666667E-01
      4.75000000000000E-01   4.75000000000000E-01   0.00000000000000E+00   0.00000000000000E+00   0.00000000000000E+00
      0.00000000000000E+00   0.00000000000000E+00   2.03056487680152E-16   0.00000000000000E+00   0.00000000000000E+00
      0.00000000000000E+00   0.00000000000000E+00  -3.19192701583201E-04  -6.82068475480460E-21  -3.19192701583201E-04
      4.00380074776110E-17   1.50000000000000E+00   1.50000000000000E+00   0.00000000000000E+00   0.00000000000000E+00
      3.19192484405555E-04  -1.15649255599894E-20   3.19192484405555E-04   6.94815587905067E-16
      3.33333333333333E-01
      5.00000000000000E-01   5.00000000000000E-01   0.00000000000000E+00   0.00000000000000E+00   0.00000000000000E+00
      0.00000000000000E+00   0.00000000000000E+00   3.09514716216210E-16   0.00000000000000E+00   0.00000000000000E+00
      0.00000000000000E+00   0.00000000000000E+00  -3.62955373731082E-04  -3.52569090123325E-21  -3.62955373731082E-04
      3.44461329431967E-17   1.50000000000000E+00   1.50000000000000E+00   0.00000000000000E+00   0.00000000000000E+00
      3.62941902467431E-04   1.93141364635806E-21   3.62941902467431E-04   6.84553645457920E-16
      3.50000000000000E-01
      5.25000000000000E-01   5.25000000000000E-01   0.00000000000000E+00   0.00000000000000E+00   0.00000000000000E+00
      0.00000000000000E+00   0.00000000000000E+00   4.18671178916853E-16   0.00000000000000E+00   0.00000000000000E+00
      0.00000000000000E+00   0.00000000000000E+00  -4.08547899866960E-04   1.30729925786686E-21  -4.08547899866960E-04
      2.88994860699212E-17   1.50000000000000E+00   1.50000000000000E+00   0.00000000000000E+00   0.00000000000000E+00
      4.08536048874455E-04   6.89718693570899E-21   4.08536048874455E-04   6.74285121513411E-16
      3.66666666666667E-01
      5.50000000000000E-01   5.50000000000000E-01   0.00000000000000E+00   0.00000000000000E+00   0.00000000000000E+00
      0.00000000000000E+00   0.00000000000000E+00   5.30220138609238E-16   0.00000000000000E+00   0.00000000000000E+00
      0.00000000000000E+00   0.00000000000000E+00  -4.55799084885299E-04  -1.43498508351696E-22  -4.55799084885299E-04
      2.33915568577190E-17   1.50000000000000E+00   1.50000000000000E+00   0.00000000000000E+00   0.00000000000000E+00
      4.55786710612654E-04   8.37021391734901E-21   4.55786710612654E-04   6.63989326811942E-16
      3.83333333333333E-01
      5.75000000000000E-01   5.75000000000000E-01   0.00000000000000E+00   0.00000000000000E+00   0.00000000000000E+00
      0.00000000000000E+00   0.00000000000000E+00   6.43875063859455E-16   0.00000000000000E+00   0.00000000000000E+00
      0.00000000000000E+00   0.00000000000000E+00  -5.04577739942979E-04   1.63991616179762E-20  -5.04577739942979E-04
      1.79167617648009E-17   1.50000000000000E+00   1.50000000000000E+00   0.00000000000000E+00   0.00000000000000E+00
      5.04577222250907E-04   2.59983568679300E-21   5.04577222250907E-04   6.53650780118523E-16
      4.00000000000000E-01
      6.00000000000000E-01   6.00000000000000E-01   0.00000000000000E+00   0.00000000000000E+00   0.00000000000000E+00
      0.00000000000000E+00   0.00000000000000E+00   7.59391166702540E-16   0.00000000000000E+00   0.00000000000000E+00
      0.00000000000000E+00   0.00000000000000E+00  -5.54777708119705E-04   1.03336015992140E-23  -5.54777708119705E-04
      1.24705049475006E-17   1.50000000000000E+00   1.50000000000000E+00   0.00000000000000E+00   0.00000000000000E+00
      5.54776836280535E-04   1.59229135253190E-22   5.54776836280535E-04   6.43256878667449E-16
      4.16666666666667E-01
      6.25000000000000E-01   6.25000000000000E-01   0.00000000000000E+00   0.00000000000000E+00   0.00000000000000E+00
      0.00000000000000E+00   0.00000000000000E+00   8.76575126338316E-16   0.00000000000000E+00   0.00000000000000E+00
      0.00000000000000E+00   0.00000000000000E+00  -6.06255254925467E-04   1.64449610638185E-23  -6.06255254925467E-04
      7.04903502535940E-18   1.50000000000000E+00   1.50000000000000E+00   0.00000000000000E+00   0.00000000000000E+00
      6.06253932529908E-04  -1.00211934013548E-22   6.06253932529908E-04   6.32797102081016E-16
      4.33333333333333E-01
      6.50000000000000E-01   6.50000000000000E-01   0.00000000000000E+00   0.00000000000000E+00   0.00000000000000E+00
      0.00000000000000E+00   0.00000000000000E+00   9.95225395618858E-16   0.00000000000000E+00   0.00000000000000E+00
      0.00000000000000E+00   0.00000000000000E+00  -6.58897342027607E-04  -1.06560300199602E-20  -6.58897342027607E-04
      1.64914715252866E-18   1.50000000000000E+00   1.50000000000000E+00   0.00000000000000E+00   0.00000000000000E+00
      6.58885459085330E-04   9.54415303643248E-22   6.58885459085330E-04   6.22261426959976E-16
      4.50000000000000E-01
      6.75000000000000E-01   6.75000000000000E-01   0.00000000000000E+00   0.00000000000000E+00   0.00000000000000E+00
      0.00000000000000E+00   0.00000000000000E+00   1.11516890981282E-15   0.00000000000000E+00   0.00000000000000E+00
      0.00000000000000E+00   0.00000000000000E+00  -7.12606654822782E-04  -8.58637573100323E-22  -7.12606654822782E-04
     -3.73188062639199E-18   1.50000000000000E+00   1.50000000000000E+00   0.00000000000000E+00   0.00000000000000E+00
      7.12607396118380E-04   5.49574038534083E-23   7.12607396118380E-04   6.11643955303145E-16
      4.66666666666667E-01
      7.00000000000000E-01   7.00000000000000E-01   0.00000000000000E+00   0.00000000000000E+00   0.00000000000000E+00
      0.00000000000000E+00   0.00000000000000E+00   1.23649027543647E-15   0.00000000000000E+00   0.00000000000000E+00
      0.00000000000000E+00   0.00000000000000E+00  -7.67227220520451E-04   1.94064658842570E-21  -7.67227220520451E-04
     -9.09617386599760E-18   1.50000000000000E+00   1.50000000000000E+00   0.00000000000000E+00   0.00000000000000E+00
      7.67230626215451E-04   2.41818713283429E-21   7.67230626215451E-04   6.00964042197108E-16
      4.83333333333333E-01
      7.25000000000000E-01   7.25000000000000E-01   0.00000000000000E+00   0.00000000000000E+00   0.00000000000000E+00
      0.00000000000000E+00   0.00000000000000E+00   1.35900331033535E-15   0.00000000000000E+00   0.00000000000000E+00
      0.00000000000000E+00   0.00000000000000E+00  -8.22640258846374E-04  -1.15913591335946E-22  -8.22640258846374E-04
     -1.44456052429849E-17   1.50000000000000E+00   1.50000000000000E+00   0.00000000000000E+00   0.00000000000000E+00
      8.22633871658878E-04   5.05183533187164E-25   8.22633871658878E-04   5.90207772579003E-16
      5.00000000000000E-01
      7.50000000000000E-01   7.50000000000000E-01   0.00000000000000E+00   0.00000000000000E+00   0.00000000000000E+00
      0.00000000000000E+00   0.00000000000000E+00   1.48257190254474E-15   0.00000000000000E+00   0.00000000000000E+00
      0.00000000000000E+00   0.00000000000000E+00  -8.78815283811459E-04   1.47246614652760E-23  -8.78815283811459E-04
     -1.97819753965712E-17   1.50000000000000E+00   1.50000000000000E+00   0.00000000000000E+00   0.00000000000000E+00
      8.78814708873155E-04   5.24754549410834E-22   8.78814708873155E-04   5.79369862591591E-16
      5.16666666666667E-01
      7.75000000000000E-01   7.75000000000000E-01   0.00000000000000E+00   0.00000000000000E+00   0.00000000000000E+00
      0.00000000000000E+00   0.00000000000000E+00   1.60708035461460E-15   0.00000000000000E+00   0.00000000000000E+00
      0.00000000000000E+00   0.00000000000000E+00  -9.35649134313084E-04  -1.62075044621233E-23  -9.35649134313084E-04
     -2.51066596179190E-17   1.50000000000000E+00   1.50000000000000E+00   0.00000000000000E+00   0.00000000000000E+00
      9.35645541711803E-04   1.61814730580548E-21   9.35645541711803E-04   5.68445256263506E-16
      5.33333333333333E-01
      8.00000000000000E-01   8.00000000000000E-01   0.00000000000000E+00   0.00000000000000E+00   0.00000000000000E+00
      0.00000000000000E+00   0.00000000000000E+00   1.73244752435215E-15   0.00000000000000E+00   0.00000000000000E+00
      0.00000000000000E+00   0.00000000000000E+00  -9.93085487406417E-04   5.55822936217631E-23  -9.93085487406417E-04
     -3.04209099740997E-17   1.50000000000000E+00   1.50000000000000E+00   0.00000000000000E+00   0.00000000000000E+00
      9.93092217223930E-04  -3.51042746033138E-22   9.93092217223930E-04   5.57432518777823E-16
      5.50000000000000E-01
      8.25000000000000E-01   8.25000000000000E-01   0.00000000000000E+00   0.00000000000000E+00   0.00000000000000E+00
      0.00000000000000E+00   0.00000000000000E+00   1.85858262327057E-15   0.00000000000000E+00   0.00000000000000E+00
      0.00000000000000E+00   0.00000000000000E+00  -1.05103716240229E-03   8.65125442355346E-22  -1.05103716240229E-03
     -3.57257569176011E-17   1.50000000000000E+00   1.50000000000000E+00   0.00000000000000E+00   0.00000000000000E+00
      1.05103244385148E-03   1.37978053530763E-21   1.05103244385148E-03   5.46328735852469E-16
      5.66666666666667E-01
      8.50000000000000E-01   8.50000000000000E-01   0.00000000000000E+00   0.00000000000000E+00   0.00000000000000E+00
      0.00000000000000E+00   0.00000000000000E+00   1.98541849206238E-15   0.00000000000000E+00   0.00000000000000E+00
      0.00000000000000E+00   0.00000000000000E+00  -1.10946144247619E-03   4.91760415409039E-23  -1.10946144247619E-03
     -4.10221577258928E-17   1.50000000000000E+00   1.50000000000000E+00   0.00000000000000E+00   0.00000000000000E+00
      1.10945718797331E-03  -4.69414962133192E-22   1.10945718797331E-03   5.35133636679036E-16
      5.83333333333333E-01
      8.75000000000000E-01   8.75000000000000E-01   0.00000000000000E+00   0.00000000000000E+00   0.00000000000000E+00
      0.00000000000000E+00   0.00000000000000E+00   2.11288440244891E-15   0.00000000000000E+00   0.00000000000000E+00
      0.00000000000000E+00   0.00000000000000E+00  -1.16829727651093E-03  -1.39749506651659E-24  -1.16829727651093E-03
     -4.63109142986101E-17   1.50000000000000E+00   1.50000000000000E+00   0.00000000000000E+00   0.00000000000000E+00
      1.16829518828897E-03  -4.41550093850414E-23   1.16829518828897E-03   5.23845597423584E-16
      6.00000000000000E-01
      9.00000000000000E-01   9.00000000000000E-01   0.00000000000000E+00   0.00000000000000E+00   0.00000000000000E+00
      0.00000000000000E+00   0.00000000000000E+00   2.24091052402850E-15   0.00000000000000E+00   0.00000000000000E+00
      0.00000000000000E+00   0.00000000000000E+00  -1.22749481928779E-03  -2.51847277450141E-22  -1.22749481928779E-03
     -5.15927404861475E-17   1.50000000000000E+00   1.50000000000000E+00   0.00000000000000E+00   0.00000000000000E+00
      1.22749384542999E-03   3.90715517960222E-22   1.22749384542999E-03   5.12462797333569E-16
      6.16666666666667E-01
      9.25000000000000E-01   9.25000000000000E-01   0.00000000000000E+00   0.00000000000000E+00   0.00000000000000E+00
      0.00000000000000E+00   0.00000000000000E+00   2.36941884137676E-15   0.00000000000000E+00   0.00000000000000E+00
      0.00000000000000E+00   0.00000000000000E+00  -1.28701336882233E-03  -1.72474299193687E-22  -1.28701336882233E-03
     -5.68682761596275E-17   1.50000000000000E+00   1.50000000000000E+00   0.00000000000000E+00   0.00000000000000E+00
      1.28701264081435E-03   3.31314032393286E-22   1.28701264081435E-03   5.00981205735663E-16
      6.33333333333334E-01
      9.50000000000000E-01   9.50000000000000E-01   0.00000000000000E+00   0.00000000000000E+00   0.00000000000000E+00
      0.00000000000000E+00   0.00000000000000E+00   2.49838803315956E-15   0.00000000000000E+00   0.00000000000000E+00
      0.00000000000000E+00   0.00000000000000E+00  -1.34680520094146E-03   2.55128720487837E-25  -1.34680520094146E-03
     -6.21380626039427E-17   1.50000000000000E+00   1.50000000000000E+00   0.00000000000000E+00   0.00000000000000E+00
      1.34680277526155E-03   2.26230298124595E-23   1.34680277526155E-03   4.89406825089697E-16
      6.50000000000000E-01
      9.75000000000001E-01   9.75000000000001E-01   0.00000000000000E+00   0.00000000000000E+00   0.00000000000000E+00
      0.00000000000000E+00   0.00000000000000E+00   2.62799031146943E-15   0.00000000000000E+00   0.00000000000000E+00
      0.00000000000000E+00   0.00000000000000E+00  -1.40676105059298E-03  -4.51411098148569E-21  -1.40676105059298E-03
     -6.74024375674305E-17   1.50000000000000E+00   1.50000000000000E+00   0.00000000000000E+00   0.00000000000000E+00
      1.40675798722046E-03  -9.74843324898646E-22   1.40675798722046E-03   4.77777767617871E-16
      6.66666666666667E-01
      1.00000000000000E+00   1.00000000000000E+00   0.00000000000000E+00   0.00000000000000E+00   0.00000000000000E+00
      0.00000000000000E+00   0.00000000000000E+00   2.75808587803745E-15   0.00000000000000E+00   0.00000000000000E+00
      0.00000000000000E+00   0.00000000000000E+00  -1.46687434935735E-03   9.16070483074086E-22  -1.46687434935735E-03
     -7.26619030846395E-17   1.50000000000000E+00   1.50000000000000E+00   0.00000000000000E+00   0.00000000000000E+00
      1.46686863105467E-03  -5.71252191939099E-22   1.46686863105467E-03   4.66076716082939E-16
      6.83333333333334E-01
      1.02500000000000E+00   1.02500000000000E+00   0.00000000000000E+00   0.00000000000000E+00   0.00000000000000E+00
      0.00000000000000E+00   0.00000000000000E+00   2.88860754546662E-15   0.00000000000000E+00   0.00000000000000E+00
      0.00000000000000E+00   0.00000000000000E+00  -1.52711830650733E-03  -7.28523818979149E-23  -1.52711830650733E-03
     -7.79168665453857E-17   1.50000000000000E+00   1.50000000000000E+00   0.00000000000000E+00   0.00000000000000E+00
      1.52711015062000E-03  -1.55882823350693E-22   1.52711015062000E-03   4.54298817289925E-16
      7.00000000000001E-01
      1.05000000000000E+00   1.05000000000000E+00   0.00000000000000E+00   0.00000000000000E+00   0.00000000000000E+00
      0.00000000000000E+00   0.00000000000000E+00   3.01952334458283E-15   0.00000000000000E+00   0.00000000000000E+00
      0.00000000000000E+00   0.00000000000000E+00  -1.58746281255515E-03   2.00149851694090E-22  -1.58746281255515E-03
     -8.31676586135175E-17   1.50000000000000E+00   1.50000000000000E+00   0.00000000000000E+00   0.00000000000000E+00
      1.58746201902398E-03   3.89335586710651E-24   1.58746201902398E-03   4.42443486762027E-16
      7.16666666666667E-01
      1.07500000000000E+00   1.07500000000000E+00   0.00000000000000E+00   0.00000000000000E+00   0.00000000000000E+00
      0.00000000000000E+00   0.00000000000000E+00   3.15077856059852E-15   0.00000000000000E+00   0.00000000000000E+00
      0.00000000000000E+00   0.00000000000000E+00  -1.64790544271824E-03   1.10800986449283E-20  -1.64790544271824E-03
     -8.84146676170580E-17   1.50000000000000E+00   1.50000000000000E+00   0.00000000000000E+00   0.00000000000000E+00
      1.64788112983060E-03   1.68352285016024E-19   1.64788112983060E-03   4.30511296931668E-16
      7.33333333333334E-01
      1.10000000000000E+00   1.10000000000000E+00   0.00000000000000E+00   0.00000000000000E+00   0.00000000000000E+00
      0.00000000000000E+00   0.00000000000000E+00   3.28237821089259E-15   0.00000000000000E+00   0.00000000000000E+00
      0.00000000000000E+00   0.00000000000000E+00  -1.70835006011238E-03   1.36987479911710E-21  -1.70835006011238E-03
     -9.36580319516396E-17   1.50000000000000E+00   1.50000000000000E+00   0.00000000000000E+00   0.00000000000000E+00
      1.70835009686504E-03  -2.48848492937196E-22   1.70835009686504E-03   4.18503447567804E-16
      7.50000000000001E-01
      1.12500000000000E+00   1.12500000000000E+00   0.00000000000000E+00   0.00000000000000E+00   0.00000000000000E+00
      0.00000000000000E+00   0.00000000000000E+00   3.41426322452106E-15   0.00000000000000E+00   0.00000000000000E+00
      0.00000000000000E+00   0.00000000000000E+00  -1.76884789714816E-03  -9.98502106799591E-24  -1.76884789714816E-03
     -9.88981499324239E-17   1.50000000000000E+00   1.50000000000000E+00   0.00000000000000E+00   0.00000000000000E+00
      1.76884356835427E-03  -5.62272685009396E-23   1.76884356835427E-03   4.06421316122632E-16
      7.66666666666667E-01
      1.15000000000000E+00   1.15000000000000E+00   0.00000000000000E+00   0.00000000000000E+00   0.00000000000000E+00
      0.00000000000000E+00   0.00000000000000E+00   3.54645504457340E-15   0.00000000000000E+00   0.00000000000000E+00
      0.00000000000000E+00   0.00000000000000E+00  -1.82932806525003E-03   1.18600809574247E-22  -1.82932806525003E-03
     -1.04135134767139E-16   1.50000000000000E+00   1.50000000000000E+00   0.00000000000000E+00   0.00000000000000E+00
      1.82932640392853E-03  -4.99494725593927E-23   1.82932640392853E-03   3.94267846921439E-16
      7.83333333333334E-01
      1.17500000000000E+00   1.17500000000000E+00   0.00000000000000E+00   0.00000000000000E+00   0.00000000000000E+00
      0.00000000000000E+00   0.00000000000000E+00   3.67891295330847E-15   0.00000000000000E+00   0.00000000000000E+00
      0.00000000000000E+00   0.00000000000000E+00  -1.88979399901991E-03   7.25596188460925E-25  -1.88979399901991E-03
     -1.09369255626674E-16   1.50000000000000E+00   1.50000000000000E+00   0.00000000000000E+00   0.00000000000000E+00
      1.88979581503751E-03  -4.83502325254208E-23   1.88979581503751E-03   3.82043551472977E-16
      8.00000000000001E-01
      1.20000000000000E+00   1.20000000000000E+00   0.00000000000000E+00   0.00000000000000E+00   0.00000000000000E+00
      0.00000000000000E+00   0.00000000000000E+00   3.81161914806212E-15   0.00000000000000E+00   0.00000000000000E+00