DF-ISE text

Info {
  version   = 1.0
  type      = xyplot
  datasets  = [
    "time"
    "gate OuterVoltage" "gate InnerVoltage" "gate QuasiFermiPotential" "gate DisplacementCurrent" "gate eCurrent"
    "gate hCurrent" "gate TotalCurrent" "gate Charge" "source OuterVoltage" "source InnerVoltage"
    "source QuasiFermiPotential" "source DisplacementCurrent" "source eCurrent" "source hCurrent" "source TotalCurrent"
    "source Charge" "drain OuterVoltage" "drain InnerVoltage" "drain QuasiFermiPotential" "drain DisplacementCurrent"
    "drain eCurrent" "drain hCurrent" "drain TotalCurrent" "drain Charge" ]
  functions = [
    Time
    OuterVoltage InnerVoltage QuasiFermiPotential DisplacementCurrent eCurrent
    hCurrent TotalCurrent Charge OuterVoltage InnerVoltage
    QuasiFermiPotential DisplacementCurrent eCurrent hCurrent TotalCurrent
    Charge OuterVoltage InnerVoltage QuasiFermiPotential DisplacementCurrent
    eCurrent hCurrent TotalCurrent Charge ]
}

Data {
      0.00000000000000E+00
      0.00000000000000E+00   0.00000000000000E+00   0.00000000000000E+00   0.00000000000000E+00   0.00000000000000E+00
      0.00000000000000E+00   0.00000000000000E+00  -5.90146894505165E-16   0.00000000000000E+00   0.00000000000000E+00
      0.00000000000000E+00   0.00000000000000E+00  -2.54671008310256E-08  -3.93009616854273E-20  -2.54671008310649E-08
      1.20844614434890E-16   1.00000000000000E+00   1.00000000000000E+00   0.00000000000000E+00   0.00000000000000E+00
      2.56745839138816E-08  -4.72188937901689E-16   2.56745834416926E-08   4.70685773035007E-16
      1.66666666666667E-02
      1.66666666666667E-03   1.66666666666667E-03   0.00000000000000E+00   0.00000000000000E+00   0.00000000000000E+00
      0.00000000000000E+00   0.00000000000000E+00  -5.88966907004208E-16   0.00000000000000E+00   0.00000000000000E+00
      0.00000000000000E+00   0.00000000000000E+00  -2.69923041182644E-08   1.24899937470954E-20  -2.69923041182519E-08
      1.20223764283509E-16   1.00000000000000E+00   1.00000000000000E+00   0.00000000000000E+00   0.00000000000000E+00
      2.72082490032556E-08   6.07531275278996E-17   2.72082490640088E-08   4.70131608417006E-16
      3.33333333333333E-02
      3.33333333333333E-03   3.33333333333333E-03   0.00000000000000E+00   0.00000000000000E+00   0.00000000000000E+00
      0.00000000000000E+00   0.00000000000000E+00  -5.87786593158543E-16   0.00000000000000E+00   0.00000000000000E+00
      0.00000000000000E+00   0.00000000000000E+00  -2.86084978805690E-08   4.80575356006325E-19  -2.86084978800885E-08
      1.19602721714242E-16   1.00000000000000E+00   1.00000000000000E+00   0.00000000000000E+00   0.00000000000000E+00
      2.86376841718363E-08  -1.07911362528802E-17   2.86376841610451E-08   4.69577371758779E-16
      5.00000000000000E-02
      5.00000000000000E-03   5.00000000000000E-03   0.00000000000000E+00   0.00000000000000E+00   0.00000000000000E+00
      0.00000000000000E+00   0.00000000000000E+00  -5.86605948742031E-16   0.00000000000000E+00   0.00000000000000E+00
      0.00000000000000E+00   0.00000000000000E+00  -3.03207838040839E-08   2.52506648347012E-17  -3.03207837788333E-08
      1.18981486829704E-16   1.00000000000000E+00   1.00000000000000E+00   0.00000000000000E+00   0.00000000000000E+00
      3.02237901416793E-08  -1.52112747151350E-16   3.02237899895666E-08   4.69023063615499E-16
      6.66666666666667E-02
      6.66666666666667E-03   6.66666666666667E-03   0.00000000000000E+00   0.00000000000000E+00   0.00000000000000E+00
      0.00000000000000E+00   0.00000000000000E+00  -5.85424968471087E-16   0.00000000000000E+00   0.00000000000000E+00
      0.00000000000000E+00   0.00000000000000E+00  -3.21355400827161E-08   9.53677883938023E-18  -3.21355400731794E-08
      1.18360059659759E-16   1.00000000000000E+00   1.00000000000000E+00   0.00000000000000E+00   0.00000000000000E+00
      3.19227575825453E-08  -1.04810485500834E-16   3.19227574777348E-08   4.68468682169282E-16
      8.33333333333333E-02
      8.33333333333333E-03   8.33333333333333E-03   0.00000000000000E+00   0.00000000000000E+00   0.00000000000000E+00
      0.00000000000000E+00   0.00000000000000E+00  -5.84243647773705E-16   0.00000000000000E+00   0.00000000000000E+00
      0.00000000000000E+00   0.00000000000000E+00  -3.40586391086657E-08   4.91755707357191E-20  -3.40586391086165E-08
      1.17738440321783E-16   1.00000000000000E+00   1.00000000000000E+00   0.00000000000000E+00   0.00000000000000E+00
      3.39803826370100E-08   3.00810580300539E-17   3.39803826670910E-08   4.67914227282010E-16
      1.00000000000000E-01
      1.00000000000000E-02   1.00000000000000E-02   0.00000000000000E+00   0.00000000000000E+00   0.00000000000000E+00
      0.00000000000000E+00   0.00000000000000E+00  -5.83061984534266E-16   0.00000000000000E+00   0.00000000000000E+00
      0.00000000000000E+00   0.00000000000000E+00  -3.60958604627017E-08   1.21981312304908E-17  -3.60958604505036E-08
      1.17116628996191E-16   1.00000000000000E+00   1.00000000000000E+00   0.00000000000000E+00   0.00000000000000E+00
      3.62202222269885E-08  -1.77613742843503E-16   3.62202220493748E-08   4.67359701830554E-16
      1.16666666666667E-01
      1.16666666666667E-02   1.16666666666667E-02   0.00000000000000E+00   0.00000000000000E+00   0.00000000000000E+00
      0.00000000000000E+00   0.00000000000000E+00  -5.81879973422290E-16   0.00000000000000E+00   0.00000000000000E+00
      0.00000000000000E+00   0.00000000000000E+00  -3.82546171320098E-08   1.75358444054007E-18  -3.82546171302562E-08
      1.16494625710774E-16   1.00000000000000E+00   1.00000000000000E+00   0.00000000000000E+00   0.00000000000000E+00
      3.85520729284034E-08  -4.81828320135997E-17   3.85520728802205E-08   4.66805103354904E-16
      1.33333333333333E-01
      1.33333333333333E-02   1.33333333333333E-02   0.00000000000000E+00   0.00000000000000E+00   0.00000000000000E+00
      0.00000000000000E+00   0.00000000000000E+00  -5.80697609170882E-16   0.00000000000000E+00   0.00000000000000E+00
      0.00000000000000E+00   0.00000000000000E+00  -4.05420930168350E-08  -3.36698618298933E-21  -4.05420930168384E-08
      1.15872430713059E-16   1.00000000000000E+00   1.00000000000000E+00   0.00000000000000E+00   0.00000000000000E+00
      4.07617076729346E-08   3.66212470326190E-17   4.07617077095559E-08   4.66250431985668E-16
      1.50000000000000E-01
      1.50000000000000E-02   1.50000000000000E-02   0.00000000000000E+00   0.00000000000000E+00   0.00000000000000E+00
      0.00000000000000E+00   0.00000000000000E+00  -5.79514890412125E-16   0.00000000000000E+00   0.00000000000000E+00
      0.00000000000000E+00   0.00000000000000E+00  -4.29652922101930E-08   5.15426662661190E-18  -4.29652922050388E-08
      1.15250044111420E-16   1.00000000000000E+00   1.00000000000000E+00   0.00000000000000E+00   0.00000000000000E+00
      4.30286355538878E-08  -1.60620531635724E-16   4.30286353932672E-08   4.65695690133057E-16
      1.66666666666667E-01
      1.66666666666667E-02   1.66666666666667E-02   0.00000000000000E+00   0.00000000000000E+00   0.00000000000000E+00
      0.00000000000000E+00   0.00000000000000E+00  -5.78331810197730E-16   0.00000000000000E+00   0.00000000000000E+00
      0.00000000000000E+00   0.00000000000000E+00  -4.55328627219745E-08   5.12355217852311E-18  -4.55328627168510E-08
      1.14627466095204E-16   1.00000000000000E+00   1.00000000000000E+00   0.00000000000000E+00   0.00000000000000E+00
      4.54610017053882E-08  -4.83553582495076E-17   4.54610016570328E-08   4.65140875214657E-16
      1.83333333333333E-01
      1.83333333333333E-02   1.83333333333333E-02   0.00000000000000E+00   0.00000000000000E+00   0.00000000000000E+00
      0.00000000000000E+00   0.00000000000000E+00  -5.77148364657695E-16   0.00000000000000E+00   0.00000000000000E+00
      0.00000000000000E+00   0.00000000000000E+00  -4.82531192799545E-08   6.05770680968060E-18  -4.82531192738968E-08
      1.14004696873661E-16   1.00000000000000E+00   1.00000000000000E+00   0.00000000000000E+00   0.00000000000000E+00
      4.81579948479922E-08  -1.44547888037350E-16   4.81579947034444E-08   4.64585987817342E-16
      2.00000000000000E-01
      2.00000000000000E-02   2.00000000000000E-02   0.00000000000000E+00   0.00000000000000E+00   0.00000000000000E+00
      0.00000000000000E+00   0.00000000000000E+00  -5.75964549864884E-16   0.00000000000000E+00   0.00000000000000E+00
      0.00000000000000E+00   0.00000000000000E+00  -5.11350777549801E-08   4.23084242436219E-18  -5.11350777507493E-08
      1.13381736645571E-16   1.00000000000000E+00   1.00000000000000E+00   0.00000000000000E+00   0.00000000000000E+00
      5.11412609789224E-08  -6.88348705788050E-17   5.11412609100875E-08   4.64031028116202E-16
      2.16666666666667E-01
      2.16666666666667E-02   2.16666666666667E-02   0.00000000000000E+00   0.00000000000000E+00   0.00000000000000E+00
      0.00000000000000E+00   0.00000000000000E+00  -5.74780361329136E-16   0.00000000000000E+00   0.00000000000000E+00
      0.00000000000000E+00   0.00000000000000E+00  -5.41882876332035E-08   5.63850675819424E-18  -5.41882876275650E-08
      1.12758585659998E-16   1.00000000000000E+00   1.00000000000000E+00   0.00000000000000E+00   0.00000000000000E+00
      5.43452858092104E-08  -1.26234763794476E-16   5.43452856829757E-08   4.63475996105061E-16
      2.33333333333333E-01
      2.33333333333333E-02   2.33333333333333E-02   0.00000000000000E+00   0.00000000000000E+00   0.00000000000000E+00
      0.00000000000000E+00   0.00000000000000E+00  -5.73595795080247E-16   0.00000000000000E+00   0.00000000000000E+00
      0.00000000000000E+00   0.00000000000000E+00  -5.74228433421119E-08   3.08892715428860E-18  -5.74228433390229E-08
      1.12135244146778E-16   1.00000000000000E+00   1.00000000000000E+00   0.00000000000000E+00   0.00000000000000E+00
      5.76754650819784E-08  -7.64664863752396E-17   5.76754650055120E-08   4.62920891876854E-16
      2.50000000000000E-01
      2.50000000000000E-02   2.50000000000000E-02   0.00000000000000E+00   0.00000000000000E+00   0.00000000000000E+00
      0.00000000000000E+00   0.00000000000000E+00  -5.72410846594946E-16   0.00000000000000E+00   0.00000000000000E+00
      0.00000000000000E+00   0.00000000000000E+00  -6.08494364278246E-08   4.48780858165856E-18  -6.08494364233368E-08
      1.11511712396215E-16   1.00000000000000E+00   1.00000000000000E+00   0.00000000000000E+00   0.00000000000000E+00
      6.10836857382657E-08  -1.12130289005604E-16   6.10836856261354E-08   4.62365715493998E-16
      2.66666666666667E-01
      2.66666666666667E-02   2.66666666666667E-02   0.00000000000000E+00   0.00000000000000E+00   0.00000000000000E+00
      0.00000000000000E+00   0.00000000000000E+00  -5.71225511488588E-16   0.00000000000000E+00   0.00000000000000E+00
      0.00000000000000E+00   0.00000000000000E+00  -6.44793822054112E-08   3.50341015559030E-18  -6.44793822019078E-08
      1.10887990695784E-16   1.00000000000000E+00   1.00000000000000E+00   0.00000000000000E+00   0.00000000000000E+00
      6.46049173264954E-08  -7.88711278758657E-17   6.46049172476243E-08   4.61810466951184E-16
      2.83333333333333E-01
      2.83333333333333E-02   2.83333333333333E-02   0.00000000000000E+00   0.00000000000000E+00   0.00000000000000E+00
      0.00000000000000E+00   0.00000000000000E+00  -5.70039785125792E-16   0.00000000000000E+00   0.00000000000000E+00
      0.00000000000000E+00   0.00000000000000E+00  -6.83246544484701E-08   3.67898012012043E-18  -6.83246544447911E-08
      1.10264079367112E-16   1.00000000000000E+00   1.00000000000000E+00   0.00000000000000E+00   0.00000000000000E+00
      6.83347335217864E-08  -1.01025438386091E-16   6.83347334207609E-08   4.61255146175466E-16
      3.00000000000000E-01
      3.00000000000000E-02   3.00000000000000E-02   0.00000000000000E+00   0.00000000000000E+00   0.00000000000000E+00
      0.00000000000000E+00   0.00000000000000E+00  -5.68853662937902E-16   0.00000000000000E+00   0.00000000000000E+00
      0.00000000000000E+00   0.00000000000000E+00  -7.23979294250811E-08   2.78517742974749E-18  -7.23979294222959E-08
      1.09639978746370E-16   1.00000000000000E+00   1.00000000000000E+00   0.00000000000000E+00   0.00000000000000E+00
      7.23664612786256E-08  -7.84715135248545E-17   7.23664612001541E-08   4.60699753089476E-16
      3.16666666666667E-01
      3.16666666666667E-02   3.16666666666667E-02   0.00000000000000E+00   0.00000000000000E+00   0.00000000000000E+00
      0.00000000000000E+00   0.00000000000000E+00  -5.67667140236887E-16   0.00000000000000E+00   0.00000000000000E+00
      0.00000000000000E+00   0.00000000000000E+00  -7.67126146264086E-08   3.07634026215472E-18  -7.67126146233322E-08
      1.09015689206386E-16   1.00000000000000E+00   1.00000000000000E+00   0.00000000000000E+00   0.00000000000000E+00
      7.67445699944669E-08  -9.20874519455063E-17   7.67445699023794E-08   4.60144287658078E-16
      3.33333333333333E-01
      3.33333333333333E-02   3.33333333333333E-02   0.00000000000000E+00   0.00000000000000E+00   0.00000000000000E+00
      0.00000000000000E+00   0.00000000000000E+00  -5.66480212443794E-16   0.00000000000000E+00   0.00000000000000E+00
      0.00000000000000E+00   0.00000000000000E+00  -8.12828997450574E-08   2.55285293557156E-18  -8.12828997425045E-08
      1.08391211136370E-16   1.00000000000000E+00   1.00000000000000E+00   0.00000000000000E+00   0.00000000000000E+00
      8.13688006818911E-08  -7.66812448500364E-17   8.13688006052098E-08   4.59588749906984E-16
      3.50000000000000E-01
      3.50000000000000E-02   3.50000000000000E-02   0.00000000000000E+00   0.00000000000000E+00   0.00000000000000E+00
      0.00000000000000E+00   0.00000000000000E+00  -5.65292874875126E-16   0.00000000000000E+00   0.00000000000000E+00
      0.00000000000000E+00   0.00000000000000E+00  -8.61238007965529E-08   2.49685384910594E-18  -8.61238007940560E-08
      1.07766544959180E-16   1.00000000000000E+00   1.00000000000000E+00   0.00000000000000E+00   0.00000000000000E+00
      8.62169593906599E-08  -8.50160795085336E-17   8.62169593056438E-08   4.59033139916449E-16
      3.66666666666667E-01
      3.66666666666667E-02   3.66666666666667E-02   0.00000000000000E+00   0.00000000000000E+00   0.00000000000000E+00
      0.00000000000000E+00   0.00000000000000E+00  -5.64105122639263E-16   0.00000000000000E+00   0.00000000000000E+00
      0.00000000000000E+00   0.00000000000000E+00  -9.12512019283469E-08   2.18125315931780E-18  -9.12512019261656E-08
      1.07141691123339E-16   1.00000000000000E+00   1.00000000000000E+00   0.00000000000000E+00   0.00000000000000E+00
      9.12918600914882E-08  -7.45979860054118E-17   9.12918600168902E-08   4.58477457640926E-16
      3.83333333333333E-01
      3.83333333333333E-02   3.83333333333333E-02   0.00000000000000E+00   0.00000000000000E+00   0.00000000000000E+00
      0.00000000000000E+00   0.00000000000000E+00  -5.62916950678880E-16   0.00000000000000E+00   0.00000000000000E+00
      0.00000000000000E+00   0.00000000000000E+00  -9.66819126035450E-08   2.17897065080024E-18  -9.66819126013660E-08
      1.06516650109901E-16   1.00000000000000E+00   1.00000000000000E+00   0.00000000000000E+00   0.00000000000000E+00
      9.66631638418293E-08  -7.98776749370429E-17   9.66631637619517E-08   4.57921703013154E-16
      4.00000000000000E-01
      4.00000000000000E-02   4.00000000000000E-02   0.00000000000000E+00   0.00000000000000E+00   0.00000000000000E+00
      0.00000000000000E+00   0.00000000000000E+00  -5.61728353816275E-16   0.00000000000000E+00   0.00000000000000E+00
      0.00000000000000E+00   0.00000000000000E+00  -1.02433713617878E-07   1.99745850076866E-18  -1.02433713615881E-07
      1.05891422430231E-16   1.00000000000000E+00   1.00000000000000E+00   0.00000000000000E+00   0.00000000000000E+00
      1.02366646497563E-07  -7.30191811939598E-17   1.02366646424544E-07   4.57365875912980E-16
      4.16666666666667E-01
      4.16666666666667E-02   4.16666666666667E-02   0.00000000000000E+00   0.00000000000000E+00   0.00000000000000E+00
      0.00000000000000E+00   0.00000000000000E+00  -5.60539326770902E-16   0.00000000000000E+00   0.00000000000000E+00
      0.00000000000000E+00   0.00000000000000E+00  -1.08525417102981E-07   1.92732467308597E-18  -1.08525417101054E-07
      1.05266008629199E-16   1.00000000000000E+00   1.00000000000000E+00   0.00000000000000E+00   0.00000000000000E+00
      1.08419808938575E-07  -7.65103610583091E-17   1.08419808862064E-07   4.56809976228996E-16
      4.33333333333333E-01
      4.33333333333333E-02   4.33333333333333E-02   0.00000000000000E+00   0.00000000000000E+00   0.00000000000000E+00
      0.00000000000000E+00   0.00000000000000E+00  -5.59349864096565E-16   0.00000000000000E+00   0.00000000000000E+00
      0.00000000000000E+00   0.00000000000000E+00  -1.14976921339531E-07   1.76642891690828E-18  -1.14976921337765E-07
      1.04640409285282E-16   1.00000000000000E+00   1.00000000000000E+00   0.00000000000000E+00   0.00000000000000E+00
      1.14822468504563E-07  -7.22778573705156E-17   1.14822468432285E-07   4.56254003793693E-16
      4.50000000000000E-01
      4.50000000000000E-02   4.50000000000000E-02   0.00000000000000E+00   0.00000000000000E+00   0.00000000000000E+00
      0.00000000000000E+00   0.00000000000000E+00  -5.58159960111667E-16   0.00000000000000E+00   0.00000000000000E+00
      0.00000000000000E+00   0.00000000000000E+00  -1.21809274426301E-07   1.79328090682757E-18  -1.21809274424508E-07
      1.04014625014384E-16   1.00000000000000E+00   1.00000000000000E+00   0.00000000000000E+00   0.00000000000000E+00
      1.21569824989293E-07  -7.48865708791107E-17   1.21569824914407E-07   4.55697958359093E-16
      4.66666666666667E-01
      4.66666666666667E-02   4.66666666666667E-02   0.00000000000000E+00   0.00000000000000E+00   0.00000000000000E+00
      0.00000000000000E+00   0.00000000000000E+00  -5.56969608867267E-16   0.00000000000000E+00   0.00000000000000E+00
      0.00000000000000E+00   0.00000000000000E+00  -1.29044740043132E-07   1.75825980686159E-18  -1.29044740041374E-07
      1.03388656468365E-16   1.00000000000000E+00   1.00000000000000E+00   0.00000000000000E+00   0.00000000000000E+00
      1.28663412452125E-07  -7.26486745178774E-17   1.28663412379477E-07   4.55141839561535E-16
      4.83333333333333E-01
      4.83333333333333E-02   4.83333333333333E-02   0.00000000000000E+00   0.00000000000000E+00   0.00000000000000E+00
      0.00000000000000E+00   0.00000000000000E+00  -5.55778804046359E-16   0.00000000000000E+00   0.00000000000000E+00
      0.00000000000000E+00   0.00000000000000E+00  -1.36706862073563E-07   1.83701607365580E-18  -1.36706862071726E-07
      1.02762504339293E-16   1.00000000000000E+00   1.00000000000000E+00   0.00000000000000E+00   0.00000000000000E+00
      1.36111030180855E-07  -7.48893262923073E-17   1.36111030105966E-07   4.54585646851442E-16
      5.00000000000000E-01
      5.00000000000000E-02   5.00000000000000E-02   0.00000000000000E+00   0.00000000000000E+00   0.00000000000000E+00
      0.00000000000000E+00   0.00000000000000E+00  -5.54587535183474E-16   0.00000000000000E+00   0.00000000000000E+00
      0.00000000000000E+00   0.00000000000000E+00  -1.44820794838553E-07  -6.55652054839263E-21  -1.44820794838560E-07
      1.02136169372794E-16   1.00000000000000E+00   1.00000000000000E+00   0.00000000000000E+00   0.00000000000000E+00
      1.44062312032323E-07   8.79157775733319E-19   1.44062312033202E-07   4.54029376792315E-16
      5.16666666666667E-01
      5.16666666666667E-02   5.16666666666667E-02   0.00000000000000E+00   0.00000000000000E+00   0.00000000000000E+00
      0.00000000000000E+00   0.00000000000000E+00  -5.53395800861475E-16   0.00000000000000E+00   0.00000000000000E+00
      0.00000000000000E+00   0.00000000000000E+00  -1.53412365605130E-07   3.21428256472037E-21  -1.53412365605127E-07
      1.01509652329156E-16   1.00000000000000E+00   1.00000000000000E+00   0.00000000000000E+00   0.00000000000000E+00
      1.53284967215722E-07   2.82455954346201E-17   1.53284967243968E-07   4.53473033275962E-16
      5.33333333333333E-01
      5.33333333333333E-02   5.33333333333333E-02   0.00000000000000E+00   0.00000000000000E+00   0.00000000000000E+00
      0.00000000000000E+00   0.00000000000000E+00  -5.52203596448604E-16   0.00000000000000E+00   0.00000000000000E+00
      0.00000000000000E+00   0.00000000000000E+00  -1.62509413405412E-07   1.66816009602051E-18  -1.62509413403744E-07
      1.00882954015848E-16   1.00000000000000E+00   1.00000000000000E+00   0.00000000000000E+00   0.00000000000000E+00
      1.62860119617252E-07  -1.07350198092673E-16   1.62860119509902E-07   4.52916617175290E-16
      5.50000000000000E-01
      5.50000000000000E-02   5.50000000000000E-02   0.00000000000000E+00   0.00000000000000E+00   0.00000000000000E+00
      0.00000000000000E+00   0.00000000000000E+00  -5.51010911715582E-16   0.00000000000000E+00   0.00000000000000E+00
      0.00000000000000E+00   0.00000000000000E+00  -1.72142168855246E-07  -9.98559664792011E-21  -1.72142168855256E-07
      1.00256075295851E-16   1.00000000000000E+00   1.00000000000000E+00   0.00000000000000E+00   0.00000000000000E+00
      1.71611530706497E-07   8.13343154651028E-18   1.71611530714631E-07   4.52360124198780E-16
      5.66666666666667E-01
      5.66666666666667E-02   5.66666666666667E-02   0.00000000000000E+00   0.00000000000000E+00   0.00000000000000E+00
      0.00000000000000E+00   0.00000000000000E+00  -5.49817742205858E-16   0.00000000000000E+00   0.00000000000000E+00
      0.00000000000000E+00   0.00000000000000E+00  -1.82340977986455E-07  -1.65482287991284E-20  -1.82340977986471E-07
      9.96290170842656E-17   1.00000000000000E+00   1.00000000000000E+00   0.00000000000000E+00   0.00000000000000E+00
      1.81478760189690E-07   3.17092435943331E-17   1.81478760221399E-07   4.51803558257195E-16
      5.83333333333333E-01
      5.83333333333333E-02   5.83333333333333E-02   0.00000000000000E+00   0.00000000000000E+00   0.00000000000000E+00
      0.00000000000000E+00   0.00000000000000E+00  -5.48624081631557E-16   0.00000000000000E+00   0.00000000000000E+00
      0.00000000000000E+00   0.00000000000000E+00  -1.93139018653856E-07   7.18215645819625E-22  -1.93139018653855E-07
      9.90017803286751E-17   1.00000000000000E+00   1.00000000000000E+00   0.00000000000000E+00   0.00000000000000E+00
      1.92918313526108E-07   2.73805879128739E-17   1.92918313553489E-07   4.51246919647470E-16
      6.00000000000000E-01
      6.00000000000000E-02   6.00000000000000E-02   0.00000000000000E+00   0.00000000000000E+00   0.00000000000000E+00
      0.00000000000000E+00   0.00000000000000E+00  -5.47429926007466E-16   0.00000000000000E+00   0.00000000000000E+00
      0.00000000000000E+00   0.00000000000000E+00  -2.04570815098069E-07   1.56677881109520E-18  -2.04570815096502E-07
      9.83743660259107E-17   1.00000000000000E+00   1.00000000000000E+00   0.00000000000000E+00   0.00000000000000E+00
      2.05159782117127E-07  -1.03353854237035E-16   2.05159782013773E-07   4.50690210539587E-16
      6.16666666666667E-01
      6.16666666666667E-02   6.16666666666667E-02   0.00000000000000E+00   0.00000000000000E+00   0.00000000000000E+00
      0.00000000000000E+00   0.00000000000000E+00  -5.46235267085945E-16   0.00000000000000E+00   0.00000000000000E+00
      0.00000000000000E+00   0.00000000000000E+00  -2.16673938911220E-07  -7.32815906780484E-21  -2.16673938911227E-07
      9.77467752270982E-17   1.00000000000000E+00   1.00000000000000E+00   0.00000000000000E+00   0.00000000000000E+00
      2.17861549317726E-07   1.03026456309297E-17   2.17861549328028E-07   4.50133428892476E-16
      6.33333333333334E-01
      6.33333333333334E-02   6.33333333333334E-02   0.00000000000000E+00   0.00000000000000E+00   0.00000000000000E+00
      0.00000000000000E+00   0.00000000000000E+00  -5.45040100789779E-16   0.00000000000000E+00   0.00000000000000E+00
      0.00000000000000E+00   0.00000000000000E+00  -2.29486491603035E-07  -3.20058611311569E-21  -2.29486491603038E-07
      9.71190090447669E-17   1.00000000000000E+00   1.00000000000000E+00   0.00000000000000E+00   0.00000000000000E+00
      2.30422620326647E-07   3.16743270233554E-17   2.30422620358321E-07   4.49576577780013E-16
      6.50000000000000E-01
      6.50000000000000E-02   6.50000000000000E-02   0.00000000000000E+00   0.00000000000000E+00   0.00000000000000E+00
      0.00000000000000E+00   0.00000000000000E+00  -5.43844417405355E-16   0.00000000000000E+00   0.00000000000000E+00
      0.00000000000000E+00   0.00000000000000E+00  -2.43049568576746E-07   1.30692591027364E-18  -2.43049568575439E-07
      9.64910686597833E-17   1.00000000000000E+00   1.00000000000000E+00   0.00000000000000E+00   0.00000000000000E+00
      2.43379000540909E-07  -1.12695392108135E-16   2.43379000428214E-07   4.49019656129781E-16
      6.66666666666667E-01
      6.66666666666667E-02   6.66666666666667E-02   0.00000000000000E+00   0.00000000000000E+00   0.00000000000000E+00
      0.00000000000000E+00   0.00000000000000E+00  -5.42648206506891E-16   0.00000000000000E+00   0.00000000000000E+00
      0.00000000000000E+00   0.00000000000000E+00  -2.57407076552311E-07   6.19046008678861E-19  -2.57407076551692E-07
      9.58629552995992E-17   1.00000000000000E+00   1.00000000000000E+00   0.00000000000000E+00   0.00000000000000E+00
      2.57233730048853E-07  -3.98078771442916E-17   2.57233730009045E-07   4.48462661913467E-16
      6.83333333333334E-01
      6.83333333333334E-02   6.83333333333334E-02   0.00000000000000E+00   0.00000000000000E+00   0.00000000000000E+00
      0.00000000000000E+00   0.00000000000000E+00  -5.41451460711115E-16   0.00000000000000E+00   0.00000000000000E+00
      0.00000000000000E+00   0.00000000000000E+00  -2.72604653347015E-07   1.09008277799507E-18  -2.72604653345924E-07
      9.52346702558805E-17   1.00000000000000E+00   1.00000000000000E+00   0.00000000000000E+00   0.00000000000000E+00
      2.72392548200006E-07  -1.08087552332652E-16   2.72392548091918E-07   4.47905596318495E-16
      7.00000000000001E-01
      7.00000000000000E-02   7.00000000000000E-02   0.00000000000000E+00   0.00000000000000E+00   0.00000000000000E+00
      0.00000000000000E+00   0.00000000000000E+00  -5.40254172024569E-16   0.00000000000000E+00   0.00000000000000E+00
      0.00000000000000E+00   0.00000000000000E+00  -2.88690772243073E-07   4.85783240544162E-19  -2.88690772242587E-07
      9.46062148797361E-17   1.00000000000000E+00   1.00000000000000E+00   0.00000000000000E+00   0.00000000000000E+00
      2.88928794212776E-07  -6.12822399643035E-17   2.88928794151494E-07   4.47348459737781E-16
      7.16666666666667E-01
      7.16666666666667E-02   7.16666666666667E-02   0.00000000000000E+00   0.00000000000000E+00   0.00000000000000E+00
      0.00000000000000E+00   0.00000000000000E+00  -5.39056332241417E-16   0.00000000000000E+00   0.00000000000000E+00
      0.00000000000000E+00   0.00000000000000E+00  -3.05716660955553E-07   6.88914937202350E-19  -3.05716660954864E-07
      9.39775905862475E-17   1.00000000000000E+00   1.00000000000000E+00   0.00000000000000E+00   0.00000000000000E+00
      3.06580171071407E-07  -9.79499267850106E-17   3.06580170973457E-07   4.46791252464150E-16
      7.33333333333334E-01
      7.33333333333334E-02   7.33333333333334E-02   0.00000000000000E+00   0.00000000000000E+00   0.00000000000000E+00
      0.00000000000000E+00   0.00000000000000E+00  -5.37857932768419E-16   0.00000000000000E+00   0.00000000000000E+00
      0.00000000000000E+00   0.00000000000000E+00  -3.23736435456139E-07   3.99934743877433E-19  -3.23736435455739E-07
      9.33487988584493E-17   1.00000000000000E+00   1.00000000000000E+00   0.00000000000000E+00   0.00000000000000E+00
      3.24998191190428E-07  -7.11765947293824E-17   3.24998191119252E-07   4.46233974662681E-16
      7.50000000000001E-01
      7.50000000000001E-02   7.50000000000001E-02   0.00000000000000E+00   0.00000000000000E+00   0.00000000000000E+00
      0.00000000000000E+00   0.00000000000000E+00  -5.36658964257102E-16   0.00000000000000E+00   0.00000000000000E+00
      0.00000000000000E+00   0.00000000000000E+00  -3.42807238074586E-07   5.58504692791743E-19  -3.42807238074028E-07
      9.27198412577281E-17   1.00000000000000E+00   1.00000000000000E+00   0.00000000000000E+00   0.00000000000000E+00
      3.44014390488456E-07  -9.04484297244233E-17   3.44014390398008E-07   4.45676626362851E-16
      7.66666666666667E-01
      7.66666666666667E-02   7.66666666666667E-02   0.00000000000000E+00   0.00000000000000E+00   0.00000000000000E+00
      0.00000000000000E+00   0.00000000000000E+00  -5.35459416651300E-16   0.00000000000000E+00   0.00000000000000E+00
      0.00000000000000E+00   0.00000000000000E+00  -3.62989454463700E-07   4.42059514814638E-19  -3.62989454463258E-07
      9.20907194123338E-17   1.00000000000000E+00   1.00000000000000E+00   0.00000000000000E+00   0.00000000000000E+00
      3.63756076650691E-07  -7.56494720469154E-17   3.63756076575041E-07   4.45119207549377E-16
      7.83333333333334E-01
      7.83333333333334E-02   7.83333333333334E-02   0.00000000000000E+00   0.00000000000000E+00   0.00000000000000E+00
      0.00000000000000E+00   0.00000000000000E+00  -5.34259279356042E-16   0.00000000000000E+00   0.00000000000000E+00
      0.00000000000000E+00   0.00000000000000E+00  -3.84346813664490E-07   5.03540893227616E-19  -3.84346813663986E-07
      9.14614350313525E-17   1.00000000000000E+00   1.00000000000000E+00   0.00000000000000E+00   0.00000000000000E+00
      3.84585852892736E-07  -8.56951852353934E-17   3.84585852807040E-07   4.44561718272038E-16
      8.00000000000001E-01
      8.00000000000001E-02   8.00000000000001E-02   0.00000000000000E+00   0.00000000000000E+00   0.00000000000000E+00
      0.00000000000000E+00   0.00000000000000E+00  -5.33058541554871E-16   0.00000000000000E+00   0.00000000000000E+00