DF-ISE text

Info {
  version   = 1.0
  type      = xyplot
  datasets  = [
    "time"
    "gate OuterVoltage" "gate InnerVoltage" "gate QuasiFermiPotential" "gate DisplacementCurrent" "gate eCurrent"
    "gate hCurrent" "gate TotalCurrent" "gate Charge" "source OuterVoltage" "source InnerVoltage"
    "source QuasiFermiPotential" "source DisplacementCurrent" "source eCurrent" "source hCurrent" "source TotalCurrent"
    "source Charge" "drain OuterVoltage" "drain InnerVoltage" "drain QuasiFermiPotential" "drain DisplacementCurrent"
    "drain eCurrent" "drain hCurrent" "drain TotalCurrent" "drain Charge" ]
  functions = [
    Time
    OuterVoltage InnerVoltage QuasiFermiPotential DisplacementCurrent eCurrent
    hCurrent TotalCurrent Charge OuterVoltage InnerVoltage
    QuasiFermiPotential DisplacementCurrent eCurrent hCurrent TotalCurrent
    Charge OuterVoltage InnerVoltage QuasiFermiPotential DisplacementCurrent
    eCurrent hCurrent TotalCurrent Charge ]
}

Data {
      0.00000000000000E+00
      0.00000000000000E+00   0.00000000000000E+00   0.00000000000000E+00   0.00000000000000E+00   0.00000000000000E+00
      0.00000000000000E+00   0.00000000000000E+00  -5.39738092237488E-16   0.00000000000000E+00   0.00000000000000E+00
      0.00000000000000E+00   0.00000000000000E+00  -4.21401551686022E-09  -1.47803490606053E-24  -4.21401551686022E-09
      1.11759752858425E-16   9.00000000000000E-01   9.00000000000000E-01   0.00000000000000E+00   0.00000000000000E+00
      4.21401551689806E-09   7.43657295276545E-22   4.21401551689881E-09   4.31952537636689E-16
      1.66666666666667E-02
      1.50000000000000E-02   1.50000000000000E-02   0.00000000000000E+00   0.00000000000000E+00   0.00000000000000E+00
      0.00000000000000E+00   0.00000000000000E+00  -5.28936330585450E-16   0.00000000000000E+00   0.00000000000000E+00
      0.00000000000000E+00   0.00000000000000E+00  -7.50046971812610E-09  -2.67551700161222E-22  -7.50046971812637E-09
      1.06056130733176E-16   9.00000000000000E-01   9.00000000000000E-01   0.00000000000000E+00   0.00000000000000E+00
      7.50046970807861E-09   6.39856724304554E-19   7.50046970871847E-09   4.26874207081221E-16
      3.33333333333333E-02
      3.00000000000000E-02   3.00000000000000E-02   0.00000000000000E+00   0.00000000000000E+00   0.00000000000000E+00
      0.00000000000000E+00   0.00000000000000E+00  -5.18099111927968E-16   0.00000000000000E+00   0.00000000000000E+00
      0.00000000000000E+00   0.00000000000000E+00  -1.33477086524782E-08  -3.93129667171199E-22  -1.33477086524786E-08
      1.00329611414985E-16   9.00000000000000E-01   9.00000000000000E-01   0.00000000000000E+00   0.00000000000000E+00
      1.33477086546313E-08   1.66012329978251E-18   1.33477086562914E-08   4.21789037517108E-16
      5.00000000000000E-02
      4.50000000000000E-02   4.50000000000000E-02   0.00000000000000E+00   0.00000000000000E+00   0.00000000000000E+00
      0.00000000000000E+00   0.00000000000000E+00  -5.07220670565130E-16   0.00000000000000E+00   0.00000000000000E+00
      0.00000000000000E+00   0.00000000000000E+00  -2.37473975722530E-08   4.52651820689852E-19  -2.37473975718004E-08
      9.45796685907452E-17   9.00000000000000E-01   9.00000000000000E-01   0.00000000000000E+00   0.00000000000000E+00
      2.37474180209354E-08   8.64882402369365E-17   2.37474181074237E-08   4.16696966330514E-16
      6.66666666666667E-02
      6.00000000000000E-02   6.00000000000000E-02   0.00000000000000E+00   0.00000000000000E+00   0.00000000000000E+00
      0.00000000000000E+00   0.00000000000000E+00  -4.96293933737936E-16   0.00000000000000E+00   0.00000000000000E+00
      0.00000000000000E+00   0.00000000000000E+00  -4.22348693502801E-08  -8.55237091371082E-24  -4.22348693502801E-08
      8.88060053043496E-17   9.00000000000000E-01   9.00000000000000E-01   0.00000000000000E+00   0.00000000000000E+00
      4.22348693447840E-08   3.11568293958495E-20   4.22348693448151E-08   4.11597932627020E-16
      8.33333333333333E-02
      7.50000000000000E-02   7.50000000000000E-02   0.00000000000000E+00   0.00000000000000E+00   0.00000000000000E+00
      0.00000000000000E+00   0.00000000000000E+00  -4.85308788047521E-16   0.00000000000000E+00   0.00000000000000E+00
      0.00000000000000E+00   0.00000000000000E+00  -7.50773113151915E-08   3.91967449641272E-20  -7.50773113151524E-08
      8.30086900923405E-17   9.00000000000000E-01   9.00000000000000E-01   0.00000000000000E+00   0.00000000000000E+00
      7.50773295905953E-08   3.97618803981773E-18   7.50773295945714E-08   4.06491876309237E-16
      1.00000000000000E-01
      9.00000000000000E-02   9.00000000000000E-02   0.00000000000000E+00   0.00000000000000E+00   0.00000000000000E+00
      0.00000000000000E+00   0.00000000000000E+00  -4.74249737814504E-16   0.00000000000000E+00   0.00000000000000E+00
      0.00000000000000E+00   0.00000000000000E+00  -1.33368330145761E-07   3.74840159196126E-21  -1.33368330145757E-07
      7.71883459606845E-17   9.00000000000000E-01   9.00000000000000E-01   0.00000000000000E+00   0.00000000000000E+00
      1.33368351623444E-07   3.56629600470747E-19   1.33368351623800E-07   4.01378735286081E-16
      1.16666666666667E-01
      1.05000000000000E-01   1.05000000000000E-01   0.00000000000000E+00   0.00000000000000E+00   0.00000000000000E+00
      0.00000000000000E+00   0.00000000000000E+00  -4.63092210444072E-16   0.00000000000000E+00   0.00000000000000E+00
      0.00000000000000E+00   0.00000000000000E+00  -2.36677893486291E-07   1.42877216890224E-22  -2.36677893486291E-07
      7.13464101712599E-17   9.00000000000000E-01   9.00000000000000E-01   0.00000000000000E+00   0.00000000000000E+00
      2.36677918402227E-07   1.39850462470798E-20   2.36677918402241E-07   3.96258440009148E-16
      1.33333333333333E-01
      1.20000000000000E-01   1.20000000000000E-01   0.00000000000000E+00   0.00000000000000E+00   0.00000000000000E+00
      0.00000000000000E+00   0.00000000000000E+00  -4.51796516676897E-16   0.00000000000000E+00   0.00000000000000E+00
      0.00000000000000E+00   0.00000000000000E+00  -4.19349343902358E-07   2.12587970795668E-23  -4.19349343902358E-07
      6.54854824173316E-17   9.00000000000000E-01   9.00000000000000E-01   0.00000000000000E+00   0.00000000000000E+00
      4.19349379864745E-07   4.08943536916088E-23   4.19349379864745E-07   3.91130903641540E-16
      1.50000000000000E-01
      1.35000000000000E-01   1.35000000000000E-01   0.00000000000000E+00   0.00000000000000E+00   0.00000000000000E+00
      0.00000000000000E+00   0.00000000000000E+00  -4.40298094305309E-16   0.00000000000000E+00   0.00000000000000E+00
      0.00000000000000E+00   0.00000000000000E+00  -7.41170395100833E-07   4.12044372384176E-23  -7.41170395100833E-07
      5.96097704597715E-17   9.00000000000000E-01   9.00000000000000E-01   0.00000000000000E+00   0.00000000000000E+00
      7.41170510951703E-07   4.32972957660227E-22   7.41170510951703E-07   3.85996004672126E-16
      1.66666666666667E-01
      1.50000000000000E-01   1.50000000000000E-01   0.00000000000000E+00   0.00000000000000E+00   0.00000000000000E+00
      0.00000000000000E+00   0.00000000000000E+00  -4.28492422546615E-16   0.00000000000000E+00   0.00000000000000E+00
      0.00000000000000E+00   0.00000000000000E+00  -1.30477166671947E-06   7.72898827985188E-23  -1.30477166671947E-06
      5.37256146327798E-17   9.00000000000000E-01   9.00000000000000E-01   0.00000000000000E+00   0.00000000000000E+00
      1.30477219943898E-06   3.85372328507742E-22   1.30477219943898E-06   3.80853557139679E-16
      1.83333333333333E-01
      1.65000000000000E-01   1.65000000000000E-01   0.00000000000000E+00   0.00000000000000E+00   0.00000000000000E+00
      0.00000000000000E+00   0.00000000000000E+00  -4.16213465280151E-16   0.00000000000000E+00   0.00000000000000E+00
      0.00000000000000E+00   0.00000000000000E+00  -2.28219191070238E-06   1.37431472414327E-22  -2.28219191070238E-06
      4.78420075419369E-17   9.00000000000000E-01   9.00000000000000E-01   0.00000000000000E+00   0.00000000000000E+00
      2.28219417600840E-06   1.64049036361385E-22   2.28219417600840E-06   3.75703262546754E-16
      2.00000000000000E-01
      1.80000000000000E-01   1.80000000000000E-01   0.00000000000000E+00   0.00000000000000E+00   0.00000000000000E+00
      0.00000000000000E+00   0.00000000000000E+00  -4.03207865507024E-16   0.00000000000000E+00   0.00000000000000E+00
      0.00000000000000E+00   0.00000000000000E+00  -3.95058245069012E-06   2.30719463361083E-22  -3.95058245069012E-06
      4.19709048703227E-17   9.00000000000000E-01   9.00000000000000E-01   0.00000000000000E+00   0.00000000000000E+00
      3.95059060641706E-06   1.61962096568960E-22   3.95059060641706E-06   3.70544640334277E-16
      2.16666666666667E-01
      1.95000000000000E-01   1.95000000000000E-01   0.00000000000000E+00   0.00000000000000E+00   0.00000000000000E+00
      0.00000000000000E+00   0.00000000000000E+00  -3.89114222343390E-16   0.00000000000000E+00   0.00000000000000E+00
      0.00000000000000E+00   0.00000000000000E+00  -6.73066161185438E-06   3.51161845552663E-22  -6.73066161185438E-06
      3.61269727228430E-17   9.00000000000000E-01   9.00000000000000E-01   0.00000000000000E+00   0.00000000000000E+00
      6.73068619902945E-06   7.08211291116335E-23   6.73068619902945E-06   3.65376944293331E-16
      2.33333333333333E-01
      2.10000000000000E-01   2.10000000000000E-01   0.00000000000000E+00   0.00000000000000E+00   0.00000000000000E+00
      0.00000000000000E+00   0.00000000000000E+00  -3.73469958054712E-16   0.00000000000000E+00   0.00000000000000E+00
      0.00000000000000E+00   0.00000000000000E+00  -1.12062882408078E-05   4.65280562377289E-22  -1.12062882408078E-05
      3.03263588436821E-17   9.00000000000000E-01   9.00000000000000E-01   0.00000000000000E+00   0.00000000000000E+00
      1.12063489670694E-05  -2.63925668125603E-25   1.12063489670694E-05   3.60199100939163E-16
      2.50000000000000E-01
      2.25000000000000E-01   2.25000000000000E-01   0.00000000000000E+00   0.00000000000000E+00   0.00000000000000E+00
      0.00000000000000E+00   0.00000000000000E+00  -3.55769346933217E-16   0.00000000000000E+00   0.00000000000000E+00
      0.00000000000000E+00   0.00000000000000E+00  -1.80939752836539E-05   5.15189705670656E-22  -1.80939752836539E-05
      2.45843514182895E-17   9.00000000000000E-01   9.00000000000000E-01   0.00000000000000E+00   0.00000000000000E+00
      1.80940942351408E-05  -1.83219749740123E-23   1.80940942351408E-05   3.55009732707876E-16
      2.66666666666667E-01
      2.40000000000000E-01   2.40000000000000E-01   0.00000000000000E+00   0.00000000000000E+00   0.00000000000000E+00
      0.00000000000000E+00   0.00000000000000E+00  -3.35576167642826E-16   0.00000000000000E+00   0.00000000000000E+00
      0.00000000000000E+00   0.00000000000000E+00  -2.81394952968578E-05   4.91362353120633E-22  -2.81394952968578E-05
      1.89119977213472E-17   9.00000000000000E-01   9.00000000000000E-01   0.00000000000000E+00   0.00000000000000E+00
      2.81396664402430E-05  -3.29673873051597E-23   2.81396664402430E-05   3.49807325778403E-16
      2.83333333333333E-01
      2.55000000000000E-01   2.55000000000000E-01   0.00000000000000E+00   0.00000000000000E+00   0.00000000000000E+00
      0.00000000000000E+00   0.00000000000000E+00  -3.12621335376250E-16   0.00000000000000E+00   0.00000000000000E+00
      0.00000000000000E+00   0.00000000000000E+00  -4.19902183210253E-05   4.01987819551678E-22  -4.19902183210253E-05
      1.33126444118224E-17   9.00000000000000E-01   9.00000000000000E-01   0.00000000000000E+00   0.00000000000000E+00
      4.19903485582537E-05  -2.26759835773997E-23   4.19903485582537E-05   3.44590474395745E-16
      3.00000000000000E-01
      2.70000000000000E-01   2.70000000000000E-01   0.00000000000000E+00   0.00000000000000E+00   0.00000000000000E+00
      0.00000000000000E+00   0.00000000000000E+00  -2.86751446231275E-16   0.00000000000000E+00   0.00000000000000E+00
      0.00000000000000E+00   0.00000000000000E+00  -6.01970605261082E-05   7.87525285588295E-23  -6.01970605261082E-05
      7.78993371428536E-18   9.00000000000000E-01   9.00000000000000E-01   0.00000000000000E+00   0.00000000000000E+00
      6.01972019530496E-05  -9.53273388308739E-24   6.01972019530496E-05   3.39357902341197E-16
      3.16666666666667E-01
      2.85000000000000E-01   2.85000000000000E-01   0.00000000000000E+00   0.00000000000000E+00   0.00000000000000E+00
      0.00000000000000E+00   0.00000000000000E+00  -2.58026367262493E-16   0.00000000000000E+00   0.00000000000000E+00
      0.00000000000000E+00   0.00000000000000E+00  -8.30378726686863E-05   2.42356621764109E-23  -8.30378726686863E-05
      2.34094751837567E-18   9.00000000000000E-01   9.00000000000000E-01   0.00000000000000E+00   0.00000000000000E+00
      8.30379757488769E-05  -2.59355265843395E-24   8.30379757488769E-05   3.34108828147726E-16
      3.33333333333333E-01
      3.00000000000000E-01   3.00000000000000E-01   0.00000000000000E+00   0.00000000000000E+00   0.00000000000000E+00
      0.00000000000000E+00   0.00000000000000E+00  -2.26611362355243E-16   0.00000000000000E+00   0.00000000000000E+00
      0.00000000000000E+00   0.00000000000000E+00  -1.10592563724106E-04   8.96921505380967E-24  -1.10592563724106E-04
     -3.03914547699707E-18   9.00000000000000E-01   9.00000000000000E-01   0.00000000000000E+00   0.00000000000000E+00
      1.10592635043796E-04  -2.01353086349620E-25   1.10592635043796E-04   3.28842848051267E-16
      3.50000000000000E-01
      3.15000000000000E-01   3.15000000000000E-01   0.00000000000000E+00   0.00000000000000E+00   0.00000000000000E+00
      0.00000000000000E+00   0.00000000000000E+00  -1.92722397209444E-16   0.00000000000000E+00   0.00000000000000E+00
      0.00000000000000E+00   0.00000000000000E+00  -1.42790908620693E-04   2.47808748697015E-24  -1.42790908620693E-04
     -8.35599685803945E-18   9.00000000000000E-01   9.00000000000000E-01   0.00000000000000E+00   0.00000000000000E+00
      1.42790957593041E-04   3.06793876173470E-25   1.42790957593041E-04   3.23559830391441E-16
      3.66666666666667E-01
      3.30000000000000E-01   3.30000000000000E-01   0.00000000000000E+00   0.00000000000000E+00   0.00000000000000E+00
      0.00000000000000E+00   0.00000000000000E+00  -1.56573916849202E-16   0.00000000000000E+00   0.00000000000000E+00
      0.00000000000000E+00   0.00000000000000E+00  -1.79453464575043E-04  -4.70848227563887E-24  -1.79453464575043E-04
     -1.36153866950986E-17   9.00000000000000E-01   9.00000000000000E-01   0.00000000000000E+00   0.00000000000000E+00
      1.79453498511766E-04   1.28546464589403E-25   1.79453498511766E-04   3.18259919929113E-16
      3.83333333333333E-01
      3.45000000000000E-01   3.45000000000000E-01   0.00000000000000E+00   0.00000000000000E+00   0.00000000000000E+00
      0.00000000000000E+00   0.00000000000000E+00  -1.18375918537729E-16   0.00000000000000E+00   0.00000000000000E+00
      0.00000000000000E+00   0.00000000000000E+00  -2.20350078174185E-04  -6.80779106686396E-24  -2.20350078174185E-04
     -1.88227764831684E-17   9.00000000000000E-01   9.00000000000000E-01   0.00000000000000E+00   0.00000000000000E+00
      2.20350102091667E-04   9.06147855179625E-26   2.20350102091667E-04   3.12943412267330E-16
      4.00000000000000E-01
      3.60000000000000E-01   3.60000000000000E-01   0.00000000000000E+00   0.00000000000000E+00   0.00000000000000E+00
      0.00000000000000E+00   0.00000000000000E+00  -7.83429233655376E-17   0.00000000000000E+00   0.00000000000000E+00
      0.00000000000000E+00   0.00000000000000E+00  -2.65233640051701E-04  -1.47381733961292E-24  -2.65233640051701E-04
     -2.39831859675371E-17   9.00000000000000E-01   9.00000000000000E-01   0.00000000000000E+00   0.00000000000000E+00
      2.65233657576665E-04   4.17771098933660E-26   2.65233657576665E-04   3.07610254178331E-16
      4.16666666666667E-01
      3.75000000000000E-01   3.75000000000000E-01   0.00000000000000E+00   0.00000000000000E+00   0.00000000000000E+00
      0.00000000000000E+00   0.00000000000000E+00  -3.66201257575738E-17   0.00000000000000E+00   0.00000000000000E+00
      0.00000000000000E+00   0.00000000000000E+00  -3.13810713751468E-04  -2.89655887613740E-25  -3.13810713751468E-04
     -2.91011492737318E-17   9.00000000000000E-01   9.00000000000000E-01   0.00000000000000E+00   0.00000000000000E+00
      3.13810726974102E-04   1.12124358703520E-26   3.13810726974102E-04   3.02261175702851E-16
      4.33333333333333E-01
      3.90000000000000E-01   3.90000000000000E-01   0.00000000000000E+00   0.00000000000000E+00   0.00000000000000E+00
      0.00000000000000E+00   0.00000000000000E+00   6.60583810291393E-18   0.00000000000000E+00   0.00000000000000E+00
      0.00000000000000E+00   0.00000000000000E+00  -3.65830151931960E-04   3.74447875139553E-26  -3.65830151931960E-04
     -3.41807733156886E-17   9.00000000000000E-01   9.00000000000000E-01   0.00000000000000E+00   0.00000000000000E+00
      3.65830162219108E-04   7.67942663250965E-27   3.65830162219108E-04   2.96895901205505E-16
      4.50000000000000E-01
      4.05000000000000E-01   4.05000000000000E-01   0.00000000000000E+00   0.00000000000000E+00   0.00000000000000E+00
      0.00000000000000E+00   0.00000000000000E+00   5.12275883387787E-17   0.00000000000000E+00   0.00000000000000E+00
      0.00000000000000E+00   0.00000000000000E+00  -4.21003868897380E-04  -8.26703042660004E-25  -4.21003868897380E-04
     -3.92257484615706E-17   9.00000000000000E-01   9.00000000000000E-01   0.00000000000000E+00   0.00000000000000E+00
      4.21003877025467E-04  -8.38303257565668E-27   4.21003877025467E-04   2.91515334466754E-16
      4.66666666666667E-01
      4.20000000000000E-01   4.20000000000000E-01   0.00000000000000E+00   0.00000000000000E+00   0.00000000000000E+00
      0.00000000000000E+00   0.00000000000000E+00   9.70864292092263E-17   0.00000000000000E+00   0.00000000000000E+00
      0.00000000000000E+00   0.00000000000000E+00  -4.79096576346346E-04  -9.74518472499858E-25  -4.79096576346346E-04
     -4.42393870778612E-17   9.00000000000000E-01   9.00000000000000E-01   0.00000000000000E+00   0.00000000000000E+00
      4.79096582930291E-04  -4.57083800342875E-28   4.79096582930291E-04   2.86118857632851E-16
      4.83333333333333E-01
      4.35000000000000E-01   4.35000000000000E-01   0.00000000000000E+00   0.00000000000000E+00   0.00000000000000E+00
      0.00000000000000E+00   0.00000000000000E+00   1.44107629489811E-16   0.00000000000000E+00   0.00000000000000E+00
      0.00000000000000E+00   0.00000000000000E+00  -5.39841172635018E-04  -1.45670122124501E-24  -5.39841172635018E-04
     -4.92247138510101E-17   9.00000000000000E-01   9.00000000000000E-01   0.00000000000000E+00   0.00000000000000E+00
      5.39841177980546E-04   7.09827973300570E-27   5.39841177980546E-04   2.80707857860532E-16
      5.00000000000000E-01
      4.50000000000000E-01   4.50000000000000E-01   0.00000000000000E+00   0.00000000000000E+00   0.00000000000000E+00
      0.00000000000000E+00   0.00000000000000E+00   1.92156260442705E-16   0.00000000000000E+00   0.00000000000000E+00
      0.00000000000000E+00   0.00000000000000E+00  -6.03025457930000E-04  -6.49755392129008E-25  -6.03025457930000E-04
     -5.41844480756528E-17   9.00000000000000E-01   9.00000000000000E-01   0.00000000000000E+00   0.00000000000000E+00
      6.03025462345227E-04   4.82244448784613E-27   6.03025462345227E-04   2.75281209900334E-16
      5.16666666666667E-01
      4.65000000000000E-01   4.65000000000000E-01   0.00000000000000E+00   0.00000000000000E+00   0.00000000000000E+00
      0.00000000000000E+00   0.00000000000000E+00   2.41162262584326E-16   0.00000000000000E+00   0.00000000000000E+00
      0.00000000000000E+00   0.00000000000000E+00  -6.68420120188933E-04  -4.16816105020637E-25  -6.68420120188933E-04
     -5.91210727748192E-17   9.00000000000000E-01   9.00000000000000E-01   0.00000000000000E+00   0.00000000000000E+00
      6.68420123832839E-04  -1.92967612695074E-26   6.68420123832839E-04   2.69840235741690E-16
      5.33333333333333E-01
      4.80000000000000E-01   4.80000000000000E-01   0.00000000000000E+00   0.00000000000000E+00   0.00000000000000E+00
      0.00000000000000E+00   0.00000000000000E+00   2.91047893823199E-16   0.00000000000000E+00   0.00000000000000E+00
      0.00000000000000E+00   0.00000000000000E+00  -7.35815866517840E-04  -1.64051528907819E-25  -7.35815866517840E-04
     -6.40368298969833E-17   9.00000000000000E-01   9.00000000000000E-01   0.00000000000000E+00   0.00000000000000E+00
      7.35815869534874E-04   2.93926831291418E-27   7.35815869534874E-04   2.64385144671421E-16
      5.50000000000000E-01
      4.95000000000000E-01   4.95000000000000E-01   0.00000000000000E+00   0.00000000000000E+00   0.00000000000000E+00
      0.00000000000000E+00   0.00000000000000E+00   3.41713146374095E-16   0.00000000000000E+00   0.00000000000000E+00
      0.00000000000000E+00   0.00000000000000E+00  -8.05036558708803E-04  -1.29390287510212E-25  -8.05036558708803E-04
     -6.89337809915389E-17   9.00000000000000E-01   9.00000000000000E-01   0.00000000000000E+00   0.00000000000000E+00
      8.05036561224964E-04  -5.31777624862637E-27   8.05036561224964E-04   2.58914833905706E-16
      5.66666666666667E-01
      5.10000000000000E-01   5.10000000000000E-01   0.00000000000000E+00   0.00000000000000E+00   0.00000000000000E+00
      0.00000000000000E+00   0.00000000000000E+00   3.93113298219700E-16   0.00000000000000E+00   0.00000000000000E+00
      0.00000000000000E+00   0.00000000000000E+00  -8.75890767132496E-04  -1.76532317006353E-25  -8.75890767132496E-04
     -7.38137957573888E-17   9.00000000000000E-01   9.00000000000000E-01   0.00000000000000E+00   0.00000000000000E+00
      8.75890769218985E-04   2.33829191343518E-27   8.75890769218985E-04   2.53431150479016E-16
      5.83333333333333E-01
      5.25000000000000E-01   5.25000000000000E-01   0.00000000000000E+00   0.00000000000000E+00   0.00000000000000E+00
      0.00000000000000E+00   0.00000000000000E+00   4.45186820006339E-16   0.00000000000000E+00   0.00000000000000E+00
      0.00000000000000E+00   0.00000000000000E+00  -9.48211736846052E-04  -8.44895349039929E-26  -9.48211736846052E-04
     -7.86785844392291E-17   9.00000000000000E-01   9.00000000000000E-01   0.00000000000000E+00   0.00000000000000E+00
      9.48211738577548E-04   8.73162862117223E-28   9.48211738577548E-04   2.47934044784961E-16
      6.00000000000000E-01
      5.40000000000000E-01   5.40000000000000E-01   0.00000000000000E+00   0.00000000000000E+00   0.00000000000000E+00
      0.00000000000000E+00   0.00000000000000E+00   4.97866777618779E-16   0.00000000000000E+00   0.00000000000000E+00
      0.00000000000000E+00   0.00000000000000E+00  -1.02185145845791E-03  -8.59512357508072E-26  -1.02185145845791E-03
     -8.35297068400306E-17   9.00000000000000E-01   9.00000000000000E-01   0.00000000000000E+00   0.00000000000000E+00
      1.02185145989755E-03  -2.79715995997103E-29   1.02185145989755E-03   2.42422778151070E-16
      6.16666666666667E-01
      5.55000000000000E-01   5.55000000000000E-01   0.00000000000000E+00   0.00000000000000E+00   0.00000000000000E+00
      0.00000000000000E+00   0.00000000000000E+00   5.51103385926581E-16   0.00000000000000E+00   0.00000000000000E+00
      0.00000000000000E+00   0.00000000000000E+00  -1.09666760261226E-03  -9.82130631830271E-26  -1.09666760261226E-03
     -8.83685870432921E-17   9.00000000000000E-01   9.00000000000000E-01   0.00000000000000E+00   0.00000000000000E+00
      1.09666760380728E-03   2.22995017415927E-28   1.09666760380728E-03   2.36898077928015E-16
      6.33333333333334E-01
      5.70000000000000E-01   5.70000000000000E-01   0.00000000000000E+00   0.00000000000000E+00   0.00000000000000E+00
      0.00000000000000E+00   0.00000000000000E+00   6.04863732528650E-16   0.00000000000000E+00   0.00000000000000E+00
      0.00000000000000E+00   0.00000000000000E+00  -1.17252062444603E-03  -1.01402780714893E-25  -1.17252062444603E-03
     -9.31965252602212E-17   9.00000000000000E-01   9.00000000000000E-01   0.00000000000000E+00   0.00000000000000E+00
      1.17252062543456E-03   2.16205388263821E-28   1.17252062543456E-03   2.31361240255153E-16
      6.50000000000000E-01
      5.85000000000000E-01   5.85000000000000E-01   0.00000000000000E+00   0.00000000000000E+00   0.00000000000000E+00
      0.00000000000000E+00   0.00000000000000E+00   6.59100404567993E-16   0.00000000000000E+00   0.00000000000000E+00
      0.00000000000000E+00   0.00000000000000E+00  -1.24929188408802E-03  -7.39980062005300E-26  -1.24929188408802E-03
     -9.80147086452801E-17   9.00000000000000E-01   9.00000000000000E-01   0.00000000000000E+00   0.00000000000000E+00
      1.24929188490638E-03   6.52111781717161E-29   1.24929188490638E-03   2.25811688034931E-16
      6.66666666666667E-01
      6.00000000000000E-01   6.00000000000000E-01   0.00000000000000E+00   0.00000000000000E+00   0.00000000000000E+00
      0.00000000000000E+00   0.00000000000000E+00   7.13771164630441E-16   0.00000000000000E+00   0.00000000000000E+00
      0.00000000000000E+00   0.00000000000000E+00  -1.32687174476820E-03  -4.87771527483197E-26  -1.32687174476820E-03
     -1.02824220653951E-16   9.00000000000000E-01   9.00000000000000E-01   0.00000000000000E+00   0.00000000000000E+00
      1.32687174544542E-03   8.07753843270811E-29   1.32687174544542E-03   2.20249003269201E-16
      6.83333333333334E-01
      6.15000000000000E-01   6.15000000000000E-01   0.00000000000000E+00   0.00000000000000E+00   0.00000000000000E+00
      0.00000000000000E+00   0.00000000000000E+00   7.68843593342412E-16   0.00000000000000E+00   0.00000000000000E+00
      0.00000000000000E+00   0.00000000000000E+00  -1.40515621473749E-03  -3.57800415951549E-26  -1.40515621473749E-03
     -1.07626040992634E-16   9.00000000000000E-01   9.00000000000000E-01   0.00000000000000E+00   0.00000000000000E+00
      1.40515621529727E-03   4.87252467832777E-29   1.40515621529727E-03   2.14674099319059E-16
      7.00000000000001E-01
      6.30000000000000E-01   6.30000000000000E-01   0.00000000000000E+00   0.00000000000000E+00   0.00000000000000E+00
      0.00000000000000E+00   0.00000000000000E+00   8.24296481291733E-16   0.00000000000000E+00   0.00000000000000E+00
      0.00000000000000E+00   0.00000000000000E+00  -1.48404514065803E-03  -4.44859803539326E-26  -1.48404514065803E-03
     -1.12421071278227E-16   9.00000000000000E-01   9.00000000000000E-01   0.00000000000000E+00   0.00000000000000E+00
      1.48404514112049E-03   8.06150882678152E-28   1.48404514112049E-03   2.09088516077694E-16
      7.16666666666667E-01
      6.45000000000001E-01   6.45000000000001E-01   0.00000000000000E+00   0.00000000000000E+00   0.00000000000000E+00
      0.00000000000000E+00   0.00000000000000E+00   8.80096713380959E-16   0.00000000000000E+00   0.00000000000000E+00
      0.00000000000000E+00   0.00000000000000E+00  -1.56345460513033E-03  -4.09233398570635E-26  -1.56345460513033E-03
     -1.17210136129340E-16   9.00000000000000E-01   9.00000000000000E-01   0.00000000000000E+00   0.00000000000000E+00
      1.56345460551203E-03  -1.30807163695617E-28   1.56345460551203E-03   2.03491528633004E-16
      7.33333333333334E-01
      6.60000000000001E-01   6.60000000000001E-01   0.00000000000000E+00   0.00000000000000E+00   0.00000000000000E+00
      0.00000000000000E+00   0.00000000000000E+00   9.36216744037728E-16   0.00000000000000E+00   0.00000000000000E+00
      0.00000000000000E+00   0.00000000000000E+00  -1.64330612701850E-03  -4.37775761349096E-26  -1.64330612701850E-03
     -1.21993982338522E-16   9.00000000000000E-01   9.00000000000000E-01   0.00000000000000E+00   0.00000000000000E+00
      1.64330612733376E-03  -6.52626883275943E-28   1.64330612733376E-03   1.97882907194382E-16
      7.50000000000001E-01
      6.75000000000001E-01   6.75000000000001E-01   0.00000000000000E+00   0.00000000000000E+00   0.00000000000000E+00
      0.00000000000000E+00   0.00000000000000E+00   9.92629784431811E-16   0.00000000000000E+00   0.00000000000000E+00
      0.00000000000000E+00   0.00000000000000E+00  -1.72352892555281E-03  -3.85993539274486E-26  -1.72352892555281E-03
     -1.26773288687435E-16   9.00000000000000E-01   9.00000000000000E-01   0.00000000000000E+00   0.00000000000000E+00
      1.72352892581364E-03  -1.67371157274889E-28   1.72352892581364E-03   1.92262131168088E-16
      7.66666666666667E-01
      6.90000000000001E-01   6.90000000000001E-01   0.00000000000000E+00   0.00000000000000E+00   0.00000000000000E+00
      0.00000000000000E+00   0.00000000000000E+00   1.04932854248239E-15   0.00000000000000E+00   0.00000000000000E+00
      0.00000000000000E+00   0.00000000000000E+00  -1.80404866702701E-03  -3.62065974553997E-26  -1.80404866702701E-03
     -1.31548672242399E-16   9.00000000000000E-01   9.00000000000000E-01   0.00000000000000E+00   0.00000000000000E+00
      1.80404866724307E-03  -2.69514201436954E-28   1.80404866724307E-03   1.86632180772497E-16
      7.83333333333334E-01
      7.05000000000001E-01   7.05000000000001E-01   0.00000000000000E+00   0.00000000000000E+00   0.00000000000000E+00
      0.00000000000000E+00   0.00000000000000E+00   1.10629259355420E-15   0.00000000000000E+00   0.00000000000000E+00
      0.00000000000000E+00   0.00000000000000E+00  -1.88480532633559E-03  -1.22187860813428E-26  -1.88480532633559E-03
     -1.36320693387068E-16   9.00000000000000E-01   9.00000000000000E-01   0.00000000000000E+00   0.00000000000000E+00
      1.88480532651389E-03  -4.20797377390737E-27   1.88480532651389E-03   1.80993136461518E-16
      8.00000000000001E-01
      7.20000000000001E-01   7.20000000000001E-01   0.00000000000000E+00   0.00000000000000E+00   0.00000000000000E+00
      0.00000000000000E+00   0.00000000000000E+00   1.16350106350630E-15   0.00000000000000E+00   0.00000000000000E+00