DF-ISE text

Info {
  version   = 1.0
  type      = xyplot
  datasets  = [
    "time"
    "gate OuterVoltage" "gate InnerVoltage" "gate QuasiFermiPotential" "gate DisplacementCurrent" "gate eCurrent"
    "gate hCurrent" "gate TotalCurrent" "gate Charge" "source OuterVoltage" "source InnerVoltage"
    "source QuasiFermiPotential" "source DisplacementCurrent" "source eCurrent" "source hCurrent" "source TotalCurrent"
    "source Charge" "drain OuterVoltage" "drain InnerVoltage" "drain QuasiFermiPotential" "drain DisplacementCurrent"
    "drain eCurrent" "drain hCurrent" "drain TotalCurrent" "drain Charge" ]
  functions = [
    Time
    OuterVoltage InnerVoltage QuasiFermiPotential DisplacementCurrent eCurrent
    hCurrent TotalCurrent Charge OuterVoltage InnerVoltage
    QuasiFermiPotential DisplacementCurrent eCurrent hCurrent TotalCurrent
    Charge OuterVoltage InnerVoltage QuasiFermiPotential DisplacementCurrent
    eCurrent hCurrent TotalCurrent Charge ]
}

Data {
      0.00000000000000E+00
      0.00000000000000E+00   0.00000000000000E+00   0.00000000000000E+00   0.00000000000000E+00   0.00000000000000E+00
      0.00000000000000E+00   0.00000000000000E+00   5.03300102875197E-16   0.00000000000000E+00   0.00000000000000E+00
      0.00000000000000E+00   0.00000000000000E+00   1.84813231758872E-08  -1.74341919264790E-17   1.84813231584530E-08
     -1.14539540408858E-16  -7.80000000000000E-01  -7.80000000000000E-01   0.00000000000000E+00   0.00000000000000E+00
     -1.84813231389291E-08  -1.95482449327686E-17  -1.84813231584773E-08  -3.89959133749906E-16
      1.66666666666667E-02
     -1.30000000000000E-02  -1.30000000000000E-02   0.00000000000000E+00   0.00000000000000E+00   0.00000000000000E+00
      0.00000000000000E+00   0.00000000000000E+00   4.94062170616578E-16   0.00000000000000E+00   0.00000000000000E+00
      0.00000000000000E+00   0.00000000000000E+00   2.89548026974105E-08   8.60489389993213E-17   2.89548027834595E-08
     -1.09696795220182E-16  -7.80000000000000E-01  -7.80000000000000E-01   0.00000000000000E+00   0.00000000000000E+00
     -2.89548029209330E-08   1.37488805464234E-16  -2.89548027834442E-08  -3.85575410958386E-16
      3.33333333333333E-02
     -2.60000000000000E-02  -2.60000000000000E-02   0.00000000000000E+00   0.00000000000000E+00   0.00000000000000E+00
      0.00000000000000E+00   0.00000000000000E+00   4.84800220677902E-16   0.00000000000000E+00   0.00000000000000E+00
      0.00000000000000E+00   0.00000000000000E+00   4.53133751907613E-08  -1.26674344342468E-16   4.53133750640869E-08
     -1.04838751311667E-16  -7.80000000000000E-01  -7.80000000000000E-01   0.00000000000000E+00   0.00000000000000E+00
     -4.53133749622498E-08  -1.01562941665596E-16  -4.53133750638128E-08  -3.81187090923797E-16
      5.00000000000000E-02
     -3.90000000000000E-02  -3.90000000000000E-02   0.00000000000000E+00   0.00000000000000E+00   0.00000000000000E+00
      0.00000000000000E+00   0.00000000000000E+00   4.75512360874425E-16   0.00000000000000E+00   0.00000000000000E+00
      0.00000000000000E+00   0.00000000000000E+00   7.08250401000518E-08  -4.14102593620791E-17   7.08250400586415E-08
     -9.99650954777712E-17  -7.80000000000000E-01  -7.80000000000000E-01   0.00000000000000E+00   0.00000000000000E+00
     -7.08250402096328E-08   1.50255305669896E-16  -7.08250400593775E-08  -3.76794160786836E-16
      6.66666666666667E-02
     -5.20000000000000E-02  -5.20000000000000E-02   0.00000000000000E+00   0.00000000000000E+00   0.00000000000000E+00
      0.00000000000000E+00   0.00000000000000E+00   4.66196187576824E-16   0.00000000000000E+00   0.00000000000000E+00
      0.00000000000000E+00   0.00000000000000E+00   1.10540709446720E-07   2.62380958249619E-17   1.10540709472958E-07
     -9.50756145660235E-17  -7.80000000000000E-01  -7.80000000000000E-01   0.00000000000000E+00   0.00000000000000E+00
     -1.10540709707894E-07   2.35015676120428E-16  -1.10540709472879E-07  -3.72396617982027E-16
      8.33333333333333E-02
     -6.50000000000000E-02  -6.50000000000000E-02   0.00000000000000E+00   0.00000000000000E+00   0.00000000000000E+00
      0.00000000000000E+00   0.00000000000000E+00   4.56848583311139E-16   0.00000000000000E+00   0.00000000000000E+00
      0.00000000000000E+00   0.00000000000000E+00   1.72238998162741E-07  -3.43689563535709E-17   1.72238998128372E-07
     -9.01702437028785E-17  -7.80000000000000E-01  -7.80000000000000E-01   0.00000000000000E+00   0.00000000000000E+00
     -1.72238998291466E-07   1.62685509490893E-16  -1.72238998128780E-07  -3.67994475824411E-16
      1.00000000000000E-01
     -7.80000000000000E-02  -7.80000000000000E-02   0.00000000000000E+00   0.00000000000000E+00   0.00000000000000E+00
      0.00000000000000E+00   0.00000000000000E+00   4.47465429400891E-16   0.00000000000000E+00   0.00000000000000E+00
      0.00000000000000E+00   0.00000000000000E+00   2.67845422297258E-07  -6.08789633009271E-18   2.67845422291170E-07
     -8.52491305278524E-17  -7.80000000000000E-01  -7.80000000000000E-01   0.00000000000000E+00   0.00000000000000E+00
     -2.67845422149920E-07  -1.41970786939395E-16  -2.67845422291890E-07  -3.63587771256505E-16
      1.16666666666667E-01
     -9.10000000000000E-02  -9.10000000000000E-02   0.00000000000000E+00   0.00000000000000E+00   0.00000000000000E+00
      0.00000000000000E+00   0.00000000000000E+00   4.38041202219409E-16   0.00000000000000E+00   0.00000000000000E+00
      0.00000000000000E+00   0.00000000000000E+00   4.15538000001216E-07  -8.93426077726403E-17   4.15537999911873E-07
     -8.03127192542843E-17  -7.80000000000000E-01  -7.80000000000000E-01   0.00000000000000E+00   0.00000000000000E+00
     -4.15537999915095E-07   3.36930733024329E-18  -4.15537999911726E-07  -3.59176576299964E-16
      1.33333333333333E-01
     -1.04000000000000E-01  -1.04000000000000E-01   0.00000000000000E+00   0.00000000000000E+00   0.00000000000000E+00
      0.00000000000000E+00   0.00000000000000E+00   4.28568414659148E-16   0.00000000000000E+00   0.00000000000000E+00
      0.00000000000000E+00   0.00000000000000E+00   6.42818626484679E-07  -1.68123236824974E-17   6.42818626467867E-07
     -7.53618580450191E-17  -7.80000000000000E-01  -7.80000000000000E-01   0.00000000000000E+00   0.00000000000000E+00
     -6.42818626399677E-07  -6.80304235953950E-17  -6.42818626467707E-07  -3.54761014648895E-16
      1.50000000000000E-01
     -1.17000000000000E-01  -1.17000000000000E-01   0.00000000000000E+00   0.00000000000000E+00   0.00000000000000E+00
      0.00000000000000E+00   0.00000000000000E+00   4.19036860590739E-16   0.00000000000000E+00   0.00000000000000E+00
      0.00000000000000E+00   0.00000000000000E+00   9.90888420243750E-07  -9.17155922159045E-17   9.90888420152035E-07
     -7.03979315096776E-17  -7.80000000000000E-01  -7.80000000000000E-01   0.00000000000000E+00   0.00000000000000E+00
     -9.90888420165797E-07   1.38628166934454E-17  -9.90888420151934E-07  -3.50341284349976E-16
      1.66666666666667E-01
     -1.30000000000000E-01  -1.30000000000000E-01   0.00000000000000E+00   0.00000000000000E+00   0.00000000000000E+00
      0.00000000000000E+00   0.00000000000000E+00   4.09432629791733E-16   0.00000000000000E+00   0.00000000000000E+00
      0.00000000000000E+00   0.00000000000000E+00   1.52067550057126E-06   3.66286929109254E-17   1.52067550060789E-06
     -6.54230159249034E-17  -7.80000000000000E-01  -7.80000000000000E-01   0.00000000000000E+00   0.00000000000000E+00
     -1.52067550053227E-06  -7.51005242923914E-17  -1.52067550060737E-06  -3.45917687956228E-16
      1.83333333333333E-01
     -1.43000000000000E-01  -1.43000000000000E-01   0.00000000000000E+00   0.00000000000000E+00   0.00000000000000E+00
      0.00000000000000E+00   0.00000000000000E+00   3.99736894094010E-16   0.00000000000000E+00   0.00000000000000E+00
      0.00000000000000E+00   0.00000000000000E+00   2.32074920463704E-06  -1.11025403978898E-14   2.32074919353450E-06
     -6.04400465653396E-17  -7.80000000000000E-01  -7.80000000000000E-01   0.00000000000000E+00   0.00000000000000E+00
     -2.32074920371776E-06   2.60061179033856E-15  -2.32074920111715E-06  -3.41490670883910E-16
      2.00000000000000E-01
     -1.56000000000000E-01  -1.56000000000000E-01   0.00000000000000E+00   0.00000000000000E+00   0.00000000000000E+00
      0.00000000000000E+00   0.00000000000000E+00   3.89924539139270E-16   0.00000000000000E+00   0.00000000000000E+00
      0.00000000000000E+00   0.00000000000000E+00   3.51700178376872E-06  -3.88109913518645E-14   3.51700174495773E-06
     -5.54529731343819E-17  -7.80000000000000E-01  -7.80000000000000E-01   0.00000000000000E+00   0.00000000000000E+00
     -3.51700177888644E-06   2.12972417247224E-15  -3.51700177675671E-06  -3.37060867220782E-16
      2.16666666666667E-01
     -1.69000000000000E-01  -1.69000000000000E-01   0.00000000000000E+00   0.00000000000000E+00   0.00000000000000E+00
      0.00000000000000E+00   0.00000000000000E+00   3.79962840579915E-16   0.00000000000000E+00   0.00000000000000E+00
      0.00000000000000E+00   0.00000000000000E+00   5.28328338261028E-06  -9.92872408669812E-14   5.28328328332304E-06
     -5.04668616873428E-17  -7.80000000000000E-01  -7.80000000000000E-01   0.00000000000000E+00   0.00000000000000E+00
     -5.28328336452037E-06  -2.67564300284592E-14  -5.28328339127680E-06  -3.32629150382702E-16
      2.33333333333333E-01
     -1.82000000000000E-01  -1.82000000000000E-01   0.00000000000000E+00   0.00000000000000E+00   0.00000000000000E+00
      0.00000000000000E+00   0.00000000000000E+00   3.69810533019023E-16   0.00000000000000E+00   0.00000000000000E+00
      0.00000000000000E+00   0.00000000000000E+00   7.85120610636524E-06  -3.14709250406055E-13   7.85120579165599E-06
     -4.54878862424905E-17  -7.80000000000000E-01  -7.80000000000000E-01   0.00000000000000E+00   0.00000000000000E+00
     -7.85120613968540E-06   3.68634087694992E-14  -7.85120610282199E-06  -3.28196682433332E-16
      2.50000000000000E-01
     -1.95000000000000E-01  -1.95000000000000E-01   0.00000000000000E+00   0.00000000000000E+00   0.00000000000000E+00
      0.00000000000000E+00   0.00000000000000E+00   3.59417674386940E-16   0.00000000000000E+00   0.00000000000000E+00
      0.00000000000000E+00   0.00000000000000E+00   1.15166551644932E-05  -7.78853545665450E-13   1.15166543856397E-05
     -4.05231561364198E-17  -7.80000000000000E-01  -7.80000000000000E-01   0.00000000000000E+00   0.00000000000000E+00
     -1.15166552534833E-05   8.23790497554099E-14  -1.15166551711042E-05  -3.23764934519281E-16
      2.66666666666667E-01
     -2.08000000000000E-01  -2.08000000000000E-01   0.00000000000000E+00   0.00000000000000E+00   0.00000000000000E+00
      0.00000000000000E+00   0.00000000000000E+00   3.48726453419272E-16   0.00000000000000E+00   0.00000000000000E+00
      0.00000000000000E+00   0.00000000000000E+00   1.66416723412188E-05  -1.70426796423925E-12   1.66416706369509E-05
     -3.55803717786519E-17  -7.80000000000000E-01  -7.80000000000000E-01   0.00000000000000E+00   0.00000000000000E+00
     -1.66416723244391E-05  -1.24865333159712E-14  -1.66416723369256E-05  -3.19335633642674E-16
      2.83333333333333E-01
     -2.21000000000000E-01  -2.21000000000000E-01   0.00000000000000E+00   0.00000000000000E+00   0.00000000000000E+00
      0.00000000000000E+00   0.00000000000000E+00   3.37672196170521E-16   0.00000000000000E+00   0.00000000000000E+00
      0.00000000000000E+00   0.00000000000000E+00   2.36564443742442E-05  -3.22372038479451E-12   2.36564411505238E-05
     -3.06674187869874E-17  -7.80000000000000E-01  -7.80000000000000E-01   0.00000000000000E+00   0.00000000000000E+00
     -2.36564443554757E-05  -8.73842809761919E-15  -2.36564443642141E-05  -3.14910705717145E-16
      3.00000000000000E-01
     -2.34000000000000E-01  -2.34000000000000E-01   0.00000000000000E+00   0.00000000000000E+00   0.00000000000000E+00
      0.00000000000000E+00   0.00000000000000E+00   3.26180938968815E-16   0.00000000000000E+00   0.00000000000000E+00
      0.00000000000000E+00   0.00000000000000E+00   3.30862773334847E-05  -5.45657631457338E-12   3.30862718769084E-05
     -2.57922721894114E-17  -7.80000000000000E-01  -7.80000000000000E-01   0.00000000000000E+00   0.00000000000000E+00
     -3.30862772792353E-05  -7.63773655640576E-14  -3.30862773556127E-05  -3.10492357016308E-16
      3.16666666666667E-01
     -2.47000000000000E-01  -2.47000000000000E-01   0.00000000000000E+00   0.00000000000000E+00   0.00000000000000E+00
      0.00000000000000E+00   0.00000000000000E+00   3.14145607371206E-16   0.00000000000000E+00   0.00000000000000E+00
      0.00000000000000E+00   0.00000000000000E+00   4.57318348324102E-05  -9.27323438158347E-12   4.57318255591758E-05
     -2.09647016395047E-17  -7.80000000000000E-01  -7.80000000000000E-01   0.00000000000000E+00   0.00000000000000E+00
     -4.57318348345926E-05  -3.80345184243441E-15  -4.57318348383961E-05  -3.06083793845661E-16
      3.33333333333333E-01
     -2.60000000000000E-01  -2.60000000000000E-01   0.00000000000000E+00   0.00000000000000E+00   0.00000000000000E+00
      0.00000000000000E+00   0.00000000000000E+00   3.01837441281470E-16   0.00000000000000E+00   0.00000000000000E+00
      0.00000000000000E+00   0.00000000000000E+00   5.98500270693797E-05  -5.99601550554917E-11   5.98499671092247E-05
     -1.61634450849135E-17  -7.80000000000000E-01  -7.80000000000000E-01   0.00000000000000E+00   0.00000000000000E+00
     -5.98500267929125E-05  -4.44827544468660E-13  -5.98500272377400E-05  -3.01676308913490E-16
      3.50000000000000E-01
     -2.73000000000000E-01  -2.73000000000000E-01   0.00000000000000E+00   0.00000000000000E+00   0.00000000000000E+00
      0.00000000000000E+00   0.00000000000000E+00   2.89442080614310E-16   0.00000000000000E+00   0.00000000000000E+00
      0.00000000000000E+00   0.00000000000000E+00   7.40147481718239E-05  -5.48018788633281E-12   7.40147426916361E-05
     -1.13690870725859E-17  -7.80000000000000E-01  -7.80000000000000E-01   0.00000000000000E+00   0.00000000000000E+00
     -7.40147482920463E-05  -1.31979466516873E-13  -7.40147484240258E-05  -2.97263882420495E-16
      3.66666666666667E-01
     -2.86000000000000E-01  -2.86000000000000E-01   0.00000000000000E+00   0.00000000000000E+00   0.00000000000000E+00
      0.00000000000000E+00   0.00000000000000E+00   2.76660937652636E-16   0.00000000000000E+00   0.00000000000000E+00
      0.00000000000000E+00   0.00000000000000E+00   9.00524159036909E-05  -1.70057175113384E-11   9.00523988979733E-05
     -6.61527807080581E-18  -7.80000000000000E-01  -7.80000000000000E-01   0.00000000000000E+00   0.00000000000000E+00
     -9.00524159075760E-05  -1.49147751945713E-14  -9.00524159224908E-05  -2.92855061833838E-16
      3.83333333333333E-01
     -2.99000000000000E-01  -2.99000000000000E-01   0.00000000000000E+00   0.00000000000000E+00   0.00000000000000E+00
      0.00000000000000E+00   0.00000000000000E+00   2.63502103767468E-16   0.00000000000000E+00   0.00000000000000E+00
      0.00000000000000E+00   0.00000000000000E+00   1.07952234881557E-04  -7.00265346593590E-12   1.07952227878903E-04
     -1.89819665403115E-18  -7.80000000000000E-01  -7.80000000000000E-01   0.00000000000000E+00   0.00000000000000E+00
     -1.07952234812045E-04  -6.05043381058053E-14  -1.07952234872549E-04  -2.88449622304997E-16
      4.00000000000000E-01
     -3.12000000000000E-01  -3.12000000000000E-01   0.00000000000000E+00   0.00000000000000E+00   0.00000000000000E+00
      0.00000000000000E+00   0.00000000000000E+00   2.49981095192026E-16   0.00000000000000E+00   0.00000000000000E+00
      0.00000000000000E+00   0.00000000000000E+00   1.27641243317390E-04  -3.50631674577637E-12   1.27641239811073E-04
      2.78539386454397E-18  -7.80000000000000E-01  -7.80000000000000E-01   0.00000000000000E+00   0.00000000000000E+00
     -1.27641243167735E-04  -6.68070562459486E-14  -1.27641243234542E-04  -2.84047048770100E-16
      4.16666666666667E-01
     -3.25000000000000E-01  -3.25000000000000E-01   0.00000000000000E+00   0.00000000000000E+00   0.00000000000000E+00
      0.00000000000000E+00   0.00000000000000E+00   2.36116869591070E-16   0.00000000000000E+00   0.00000000000000E+00
      0.00000000000000E+00   0.00000000000000E+00   1.49011650958538E-04  -2.01187077653526E-12   1.49011648946668E-04
      7.43821801059382E-18  -7.80000000000000E-01  -7.80000000000000E-01   0.00000000000000E+00   0.00000000000000E+00
     -1.49011651434679E-04   4.99407933649034E-13  -1.49011650935271E-04  -2.79646700590338E-16
      4.33333333333333E-01
     -3.38000000000000E-01  -3.38000000000000E-01   0.00000000000000E+00   0.00000000000000E+00   0.00000000000000E+00
      0.00000000000000E+00   0.00000000000000E+00   2.21928353656807E-16   0.00000000000000E+00   0.00000000000000E+00
      0.00000000000000E+00   0.00000000000000E+00   1.71950164794742E-04  -1.27050903270156E-12   1.71950163524233E-04
      1.20630126079011E-17  -7.80000000000000E-01  -7.80000000000000E-01   0.00000000000000E+00   0.00000000000000E+00
     -1.71950164824751E-04   8.25230235546226E-14  -1.71950164742228E-04  -2.75247917954895E-16
      4.50000000000000E-01
     -3.51000000000000E-01  -3.51000000000000E-01   0.00000000000000E+00   0.00000000000000E+00   0.00000000000000E+00
      0.00000000000000E+00   0.00000000000000E+00   2.07434466118149E-16   0.00000000000000E+00   0.00000000000000E+00
      0.00000000000000E+00   0.00000000000000E+00   1.96343787956177E-04  -8.13302489722675E-13   1.96343787142875E-04
      1.66621789308428E-17  -7.80000000000000E-01  -7.80000000000000E-01   0.00000000000000E+00   0.00000000000000E+00
     -1.96343787999442E-04   3.09861130093953E-14  -1.96343787968455E-04  -2.70850038951686E-16
      4.66666666666667E-01
     -3.64000000000000E-01  -3.64000000000000E-01   0.00000000000000E+00   0.00000000000000E+00   0.00000000000000E+00
      0.00000000000000E+00   0.00000000000000E+00   1.92652343398875E-16   0.00000000000000E+00   0.00000000000000E+00
      0.00000000000000E+00   0.00000000000000E+00   2.22082587666373E-04  -5.64811601364542E-13   2.22082587101562E-04
      2.12379313052934E-17  -7.80000000000000E-01  -7.80000000000000E-01   0.00000000000000E+00   0.00000000000000E+00
     -2.22082587695916E-04   1.73067178244927E-14  -2.22082587678609E-04  -2.66452485742611E-16
      4.83333333333333E-01
     -3.77000000000000E-01  -3.77000000000000E-01   0.00000000000000E+00   0.00000000000000E+00   0.00000000000000E+00
      0.00000000000000E+00   0.00000000000000E+00   1.77599425883072E-16   0.00000000000000E+00   0.00000000000000E+00
      0.00000000000000E+00   0.00000000000000E+00   2.49068307975661E-04  -4.00974819740539E-13   2.49068307574686E-04
      2.57924211495751E-17  -7.80000000000000E-01  -7.80000000000000E-01   0.00000000000000E+00   0.00000000000000E+00
     -2.49068307950540E-04  -2.58303081863326E-14  -2.49068307976371E-04  -2.62054621558486E-16
      5.00000000000000E-01
     -3.90000000000000E-01  -3.90000000000000E-01   0.00000000000000E+00   0.00000000000000E+00   0.00000000000000E+00
      0.00000000000000E+00   0.00000000000000E+00   1.62290756019658E-16   0.00000000000000E+00   0.00000000000000E+00
      0.00000000000000E+00   0.00000000000000E+00   2.77204071652940E-04  -2.91409200885775E-13   2.77204071361531E-04
      3.03274999587916E-17  -7.80000000000000E-01  -7.80000000000000E-01   0.00000000000000E+00   0.00000000000000E+00
     -2.77204071607038E-04  -4.98733102458100E-14  -2.77204071656911E-04  -2.57655966224500E-16
      5.16666666666667E-01
     -4.03000000000000E-01  -4.03000000000000E-01   0.00000000000000E+00   0.00000000000000E+00   0.00000000000000E+00
      0.00000000000000E+00   0.00000000000000E+00   1.46741630639385E-16   0.00000000000000E+00   0.00000000000000E+00
      0.00000000000000E+00   0.00000000000000E+00   3.06404679285390E-04  -2.17427465676767E-13   3.06404679067962E-04
      3.48450055952006E-17  -7.80000000000000E-01  -7.80000000000000E-01   0.00000000000000E+00   0.00000000000000E+00
     -3.06404679262985E-04  -2.39004241044567E-14  -3.06404679286885E-04  -2.53255956270746E-16
      5.33333333333333E-01
     -4.16000000000000E-01  -4.16000000000000E-01   0.00000000000000E+00   0.00000000000000E+00   0.00000000000000E+00
      0.00000000000000E+00   0.00000000000000E+00   1.30965864149803E-16   0.00000000000000E+00   0.00000000000000E+00
      0.00000000000000E+00   0.00000000000000E+00   3.36588801746974E-04  -1.73819618616256E-13   3.36588801573154E-04
      3.93465646933716E-17  -7.80000000000000E-01  -7.80000000000000E-01   0.00000000000000E+00   0.00000000000000E+00
     -3.36588801739108E-04  -6.82241613331807E-15  -3.36588801745930E-04  -2.48854139905710E-16
      5.50000000000000E-01
     -4.29000000000000E-01  -4.29000000000000E-01   0.00000000000000E+00   0.00000000000000E+00   0.00000000000000E+00
      0.00000000000000E+00   0.00000000000000E+00   1.14976288023631E-16   0.00000000000000E+00   0.00000000000000E+00
      0.00000000000000E+00   0.00000000000000E+00   3.67681420460566E-04  -1.38442399322670E-13   3.67681420322124E-04
      4.38337205686991E-17  -7.80000000000000E-01  -7.80000000000000E-01   0.00000000000000E+00   0.00000000000000E+00
     -3.67681420456701E-04  -2.62962733948549E-15  -3.67681420459331E-04  -2.44450113797614E-16
      5.66666666666667E-01
     -4.42000000000000E-01  -4.42000000000000E-01   0.00000000000000E+00   0.00000000000000E+00   0.00000000000000E+00
      0.00000000000000E+00   0.00000000000000E+00   9.87854925025988E-17   0.00000000000000E+00   0.00000000000000E+00
      0.00000000000000E+00   0.00000000000000E+00   3.99613102512830E-04  -1.11292718921829E-13   3.99613102401537E-04
      4.83078731507925E-17  -7.80000000000000E-01  -7.80000000000000E-01   0.00000000000000E+00   0.00000000000000E+00
     -3.99613102526510E-04   1.58996874131803E-14  -3.99613102510610E-04  -2.40043470858540E-16
      5.83333333333333E-01
     -4.55000000000000E-01  -4.55000000000000E-01   0.00000000000000E+00   0.00000000000000E+00   0.00000000000000E+00
      0.00000000000000E+00   0.00000000000000E+00   8.24049066681703E-17   0.00000000000000E+00   0.00000000000000E+00
      0.00000000000000E+00   0.00000000000000E+00   4.32320417369966E-04  -8.59110248060421E-14   4.32320417284055E-04
      5.27704102385492E-17  -7.80000000000000E-01  -7.80000000000000E-01   0.00000000000000E+00   0.00000000000000E+00
     -4.32320417341268E-04  -3.03111913465665E-14  -4.32320417371580E-04  -2.35633856933946E-16
      6.00000000000000E-01
     -4.68000000000000E-01  -4.68000000000000E-01   0.00000000000000E+00   0.00000000000000E+00   0.00000000000000E+00
      0.00000000000000E+00   0.00000000000000E+00   6.58455626024676E-17   0.00000000000000E+00   0.00000000000000E+00
      0.00000000000000E+00   0.00000000000000E+00   4.65743522258849E-04  -7.44710664986980E-14   4.65743522184378E-04
      5.72225573897804E-17  -7.80000000000000E-01  -7.80000000000000E-01   0.00000000000000E+00   0.00000000000000E+00
     -4.65743522264968E-04   3.13418887588494E-15  -4.65743522261834E-04  -2.31220953487912E-16
      6.16666666666667E-01
     -4.81000000000000E-01  -4.81000000000000E-01   0.00000000000000E+00   0.00000000000000E+00   0.00000000000000E+00
      0.00000000000000E+00   0.00000000000000E+00   4.91178811389985E-17   0.00000000000000E+00   0.00000000000000E+00
      0.00000000000000E+00   0.00000000000000E+00   4.99826629631634E-04  -6.07963701010583E-14   4.99826629570838E-04
      6.16654505672557E-17  -7.80000000000000E-01  -7.80000000000000E-01   0.00000000000000E+00   0.00000000000000E+00
     -4.99826629638084E-04   3.22145864078830E-15  -4.99826629634863E-04  -2.26804481709790E-16
      6.33333333333334E-01
     -4.94000000000000E-01  -4.94000000000000E-01   0.00000000000000E+00   0.00000000000000E+00   0.00000000000000E+00
      0.00000000000000E+00   0.00000000000000E+00   3.22314108064450E-17   0.00000000000000E+00   0.00000000000000E+00
      0.00000000000000E+00   0.00000000000000E+00   5.34518493325156E-04  -5.18806457905721E-14   5.34518493273276E-04
      6.61001968730562E-17  -7.80000000000000E-01  -7.80000000000000E-01   0.00000000000000E+00   0.00000000000000E+00
     -5.34518493327963E-04   3.30556432260121E-17  -5.34518493327930E-04  -2.22384208150363E-16
      6.50000000000000E-01
     -5.07000000000000E-01  -5.07000000000000E-01   0.00000000000000E+00   0.00000000000000E+00   0.00000000000000E+00
      0.00000000000000E+00   0.00000000000000E+00   1.51951241725378E-17   0.00000000000000E+00   0.00000000000000E+00
      0.00000000000000E+00   0.00000000000000E+00   5.69770792933476E-04  -3.80677224945664E-14   5.69770792895408E-04
      7.05277958113547E-17  -7.80000000000000E-01  -7.80000000000000E-01   0.00000000000000E+00   0.00000000000000E+00
     -5.69770792939650E-04  -2.17836414568101E-15  -5.69770792941828E-04  -2.17959959463794E-16
      6.66666666666667E-01
     -5.20000000000000E-01  -5.20000000000000E-01   0.00000000000000E+00   0.00000000000000E+00   0.00000000000000E+00
      0.00000000000000E+00   0.00000000000000E+00  -1.98240778055908E-18   0.00000000000000E+00   0.00000000000000E+00
      0.00000000000000E+00   0.00000000000000E+00   6.05538703768789E-04  -3.78565447229785E-14   6.05538703730932E-04
      7.49491726187914E-17  -7.80000000000000E-01  -7.80000000000000E-01   0.00000000000000E+00   0.00000000000000E+00
     -6.05538703771183E-04   3.46591856714336E-16  -6.05538703770837E-04  -2.13531594865577E-16
      6.83333333333334E-01
     -5.33000000000000E-01  -5.33000000000000E-01   0.00000000000000E+00   0.00000000000000E+00   0.00000000000000E+00
      0.00000000000000E+00   0.00000000000000E+00  -1.92929648036107E-17   0.00000000000000E+00   0.00000000000000E+00
      0.00000000000000E+00   0.00000000000000E+00   6.41780722840942E-04  -3.22105286659779E-14   6.41780722808731E-04
      7.93651858514518E-17  -7.80000000000000E-01  -7.80000000000000E-01   0.00000000000000E+00   0.00000000000000E+00
     -6.41780722843476E-04   5.30511264832556E-16  -6.41780722842945E-04  -2.09098962980832E-16
      7.00000000000001E-01
     -5.46000000000000E-01  -5.46000000000000E-01   0.00000000000000E+00   0.00000000000000E+00   0.00000000000000E+00
      0.00000000000000E+00   0.00000000000000E+00  -3.67287423144523E-17   0.00000000000000E+00   0.00000000000000E+00
      0.00000000000000E+00   0.00000000000000E+00   6.78458226803076E-04  -2.90257763973952E-14   6.78458226774050E-04
      8.37766273664089E-17  -7.80000000000000E-01  -7.80000000000000E-01   0.00000000000000E+00   0.00000000000000E+00
     -6.78458226804040E-04   3.23844258232109E-16  -6.78458226803716E-04  -2.04661884058412E-16
      7.16666666666667E-01
     -5.59000000000000E-01  -5.59000000000000E-01   0.00000000000000E+00   0.00000000000000E+00   0.00000000000000E+00
      0.00000000000000E+00   0.00000000000000E+00  -5.42827674059821E-17   0.00000000000000E+00   0.00000000000000E+00
      0.00000000000000E+00   0.00000000000000E+00   7.15534690549314E-04  -2.69881334314650E-14   7.15534690522326E-04
      8.81842201238105E-17  -7.80000000000000E-01  -7.80000000000000E-01   0.00000000000000E+00   0.00000000000000E+00
     -7.15534690548479E-04   1.33169320361203E-16  -7.15534690548346E-04  -2.00220319762980E-16
      7.33333333333334E-01
     -5.72000000000001E-01  -5.72000000000001E-01   0.00000000000000E+00   0.00000000000000E+00   0.00000000000000E+00
      0.00000000000000E+00   0.00000000000000E+00  -7.19485392574526E-17   0.00000000000000E+00   0.00000000000000E+00
      0.00000000000000E+00   0.00000000000000E+00   7.52974918098490E-04  -2.51961670066127E-14   7.52974918073294E-04
      9.25885781183325E-17  -7.80000000000000E-01  -7.80000000000000E-01   0.00000000000000E+00   0.00000000000000E+00
     -7.52974918096927E-04   3.15210275347143E-16  -7.52974918096612E-04  -1.95774366448640E-16
      7.50000000000001E-01
     -5.85000000000001E-01  -5.85000000000001E-01   0.00000000000000E+00   0.00000000000000E+00   0.00000000000000E+00
      0.00000000000000E+00   0.00000000000000E+00  -8.97198116814042E-17   0.00000000000000E+00   0.00000000000000E+00
      0.00000000000000E+00   0.00000000000000E+00   7.90748107014257E-04  -2.10180448350697E-14   7.90748106993239E-04
      9.69903432533685E-17  -7.80000000000000E-01  -7.80000000000000E-01   0.00000000000000E+00   0.00000000000000E+00
     -7.90748107014119E-04   1.20134289016531E-16  -7.90748107013999E-04  -1.91323960842248E-16
      7.66666666666667E-01
     -5.98000000000001E-01  -5.98000000000001E-01   0.00000000000000E+00   0.00000000000000E+00   0.00000000000000E+00
      0.00000000000000E+00   0.00000000000000E+00  -1.07589995325813E-16   0.00000000000000E+00   0.00000000000000E+00
      0.00000000000000E+00   0.00000000000000E+00   8.28825074702596E-04  -1.77662026793924E-14   8.28825074684830E-04
      1.01390038936132E-16  -7.80000000000000E-01  -7.80000000000000E-01   0.00000000000000E+00   0.00000000000000E+00
     -8.28825074702734E-04  -7.21262296424317E-17  -8.28825074702806E-04  -1.86868918273591E-16
      7.83333333333334E-01
     -6.11000000000001E-01  -6.11000000000001E-01   0.00000000000000E+00   0.00000000000000E+00   0.00000000000000E+00
      0.00000000000000E+00   0.00000000000000E+00  -1.25554784204897E-16   0.00000000000000E+00   0.00000000000000E+00
      0.00000000000000E+00   0.00000000000000E+00   8.67176837911987E-04  -1.54224169782467E-14   8.67176837896565E-04
      1.05788164852870E-16  -7.80000000000000E-01  -7.80000000000000E-01   0.00000000000000E+00   0.00000000000000E+00
     -8.67176837912100E-04  -2.66483749678456E-16  -8.67176837912366E-04  -1.82409674596824E-16
      8.00000000000001E-01
     -6.24000000000001E-01  -6.24000000000001E-01   0.00000000000000E+00   0.00000000000000E+00   0.00000000000000E+00
      0.00000000000000E+00   0.00000000000000E+00  -1.43608386957131E-16   0.00000000000000E+00   0.00000000000000E+00