DF-ISE text

Info {
  version   = 1.0
  type      = xyplot
  datasets  = [
    "time"
    "gate OuterVoltage" "gate InnerVoltage" "gate QuasiFermiPotential" "gate DisplacementCurrent" "gate eCurrent"
    "gate hCurrent" "gate TotalCurrent" "gate Charge" "source OuterVoltage" "source InnerVoltage"
    "source QuasiFermiPotential" "source DisplacementCurrent" "source eCurrent" "source hCurrent" "source TotalCurrent"
    "source Charge" "drain OuterVoltage" "drain InnerVoltage" "drain QuasiFermiPotential" "drain DisplacementCurrent"
    "drain eCurrent" "drain hCurrent" "drain TotalCurrent" "drain Charge" ]
  functions = [
    Time
    OuterVoltage InnerVoltage QuasiFermiPotential DisplacementCurrent eCurrent
    hCurrent TotalCurrent Charge OuterVoltage InnerVoltage
    QuasiFermiPotential DisplacementCurrent eCurrent hCurrent TotalCurrent
    Charge OuterVoltage InnerVoltage QuasiFermiPotential DisplacementCurrent
    eCurrent hCurrent TotalCurrent Charge ]
}

Data {
      0.00000000000000E+00
      0.00000000000000E+00   0.00000000000000E+00   0.00000000000000E+00   0.00000000000000E+00   0.00000000000000E+00
      0.00000000000000E+00   0.00000000000000E+00  -5.48935861447850E-16   0.00000000000000E+00   0.00000000000000E+00
      0.00000000000000E+00   0.00000000000000E+00  -1.95033473069865E-09  -3.62331429379580E-23  -1.95033473069868E-09
      1.18193112046508E-16   9.00000000000000E-01   9.00000000000000E-01   0.00000000000000E+00   0.00000000000000E+00
      1.95033472918690E-09   5.33199704068898E-21   1.95033472919223E-09   4.34701024508400E-16
      1.66666666666667E-02
      1.50000000000000E-02   1.50000000000000E-02   0.00000000000000E+00   0.00000000000000E+00   0.00000000000000E+00
      0.00000000000000E+00   0.00000000000000E+00  -5.38278278036282E-16   0.00000000000000E+00   0.00000000000000E+00
      0.00000000000000E+00   0.00000000000000E+00  -3.46873752871445E-09   7.80347969740119E-18  -3.46873752091097E-09
      1.12585897846974E-16   9.00000000000000E-01   9.00000000000000E-01   0.00000000000000E+00   0.00000000000000E+00
      3.46948826955221E-09   8.51172297132200E-17   3.46948835466944E-09   4.29670006338491E-16
      3.33333333333333E-02
      3.00000000000000E-02   3.00000000000000E-02   0.00000000000000E+00   0.00000000000000E+00   0.00000000000000E+00
      0.00000000000000E+00   0.00000000000000E+00  -5.27593186054812E-16   0.00000000000000E+00   0.00000000000000E+00
      0.00000000000000E+00   0.00000000000000E+00  -6.16851022067536E-09   9.51015868710070E-18  -6.16851021116520E-09
      1.06958290143152E-16   9.00000000000000E-01   9.00000000000000E-01   0.00000000000000E+00   0.00000000000000E+00
      6.17141941315104E-09   1.42883522613906E-16   6.17141955603456E-09   4.24632450767934E-16
      5.00000000000000E-02
      4.50000000000000E-02   4.50000000000000E-02   0.00000000000000E+00   0.00000000000000E+00   0.00000000000000E+00
      0.00000000000000E+00   0.00000000000000E+00  -5.16875117214045E-16   0.00000000000000E+00   0.00000000000000E+00
      0.00000000000000E+00   0.00000000000000E+00  -1.09752368948762E-08  -1.22146401041164E-23  -1.09752368948762E-08
      1.01309810468562E-16   9.00000000000000E-01   9.00000000000000E-01   0.00000000000000E+00   0.00000000000000E+00
      1.09752368914855E-08   7.16488548404621E-20   1.09752368915571E-08   4.19588311802440E-16
      6.66666666666667E-02
      6.00000000000000E-02   6.00000000000000E-02   0.00000000000000E+00   0.00000000000000E+00   0.00000000000000E+00
      0.00000000000000E+00   0.00000000000000E+00  -5.06119048339336E-16   0.00000000000000E+00   0.00000000000000E+00
      0.00000000000000E+00   0.00000000000000E+00  -1.95128022429035E-08  -1.81213927455018E-23  -1.95128022429035E-08
      9.56401296901040E-17   9.00000000000000E-01   9.00000000000000E-01   0.00000000000000E+00   0.00000000000000E+00
      1.95128022468559E-08   8.21131559476452E-20   1.95128022469381E-08   4.14537544996609E-16
      8.33333333333333E-02
      7.50000000000000E-02   7.50000000000000E-02   0.00000000000000E+00   0.00000000000000E+00   0.00000000000000E+00
      0.00000000000000E+00   0.00000000000000E+00  -4.95318951589269E-16   0.00000000000000E+00   0.00000000000000E+00
      0.00000000000000E+00   0.00000000000000E+00  -3.46789723897747E-08   8.87152204818545E-20  -3.46789723896859E-08
      8.99491631974700E-17   9.00000000000000E-01   9.00000000000000E-01   0.00000000000000E+00   0.00000000000000E+00
      3.46789817898860E-08   2.81357519067876E-17   3.46789818180218E-08   4.09480108764293E-16
      1.00000000000000E-01
      9.00000000000000E-02   9.00000000000000E-02   0.00000000000000E+00   0.00000000000000E+00   0.00000000000000E+00
      0.00000000000000E+00   0.00000000000000E+00  -4.84466372152725E-16   0.00000000000000E+00   0.00000000000000E+00
      0.00000000000000E+00   0.00000000000000E+00  -6.16012094011021E-08  -5.31087671078074E-24  -6.16012094011021E-08
      8.42372016419578E-17   9.00000000000000E-01   9.00000000000000E-01   0.00000000000000E+00   0.00000000000000E+00
      6.16012094537889E-08   1.25084709131514E-20   6.16012094538014E-08   4.04415965127391E-16
      1.16666666666667E-01
      1.05000000000000E-01   1.05000000000000E-01   0.00000000000000E+00   0.00000000000000E+00   0.00000000000000E+00
      0.00000000000000E+00   0.00000000000000E+00  -4.73548560525390E-16   0.00000000000000E+00   0.00000000000000E+00
      0.00000000000000E+00   0.00000000000000E+00  -1.09343545572141E-07  -1.91958456249947E-24  -1.09343545572141E-07
      7.85050881719795E-17   9.00000000000000E-01   9.00000000000000E-01   0.00000000000000E+00   0.00000000000000E+00
      1.09343545525953E-07   1.50140483599385E-21   1.09343545525955E-07   3.99345079980596E-16
      1.33333333333333E-01
      1.20000000000000E-01   1.20000000000000E-01   0.00000000000000E+00   0.00000000000000E+00   0.00000000000000E+00
      0.00000000000000E+00   0.00000000000000E+00  -4.62545578251142E-16   0.00000000000000E+00   0.00000000000000E+00
      0.00000000000000E+00   0.00000000000000E+00  -1.93889866092290E-07   1.19051008262998E-21  -1.93889866092289E-07
      7.27544577869882E-17   9.00000000000000E-01   9.00000000000000E-01   0.00000000000000E+00   0.00000000000000E+00
      1.93889879577168E-07   2.41146120266435E-19   1.93889879577409E-07   3.94267423024814E-16
      1.50000000000000E-01
      1.35000000000000E-01   1.35000000000000E-01   0.00000000000000E+00   0.00000000000000E+00   0.00000000000000E+00
      0.00000000000000E+00   0.00000000000000E+00  -4.51425627827528E-16   0.00000000000000E+00   0.00000000000000E+00
      0.00000000000000E+00   0.00000000000000E+00  -3.43257223746801E-07   4.99663260965757E-23  -3.43257223746801E-07
      6.69880520638267E-17   9.00000000000000E-01   9.00000000000000E-01   0.00000000000000E+00   0.00000000000000E+00
      3.43257252219634E-07   1.47333675065245E-20   3.43257252219649E-07   3.89182967115544E-16
      1.66666666666667E-01
      1.50000000000000E-01   1.50000000000000E-01   0.00000000000000E+00   0.00000000000000E+00   0.00000000000000E+00
      0.00000000000000E+00   0.00000000000000E+00  -4.40137537503636E-16   0.00000000000000E+00   0.00000000000000E+00
      0.00000000000000E+00   0.00000000000000E+00  -6.06210779959842E-07   1.21530744367641E-23  -6.06210779959842E-07
      6.12101132857679E-17   9.00000000000000E-01   9.00000000000000E-01   0.00000000000000E+00   0.00000000000000E+00
      6.06210895221106E-07   3.03250910561300E-23   6.06210895221106E-07   3.84091686768133E-16
      1.83333333333333E-01
      1.65000000000000E-01   1.65000000000000E-01   0.00000000000000E+00   0.00000000000000E+00   0.00000000000000E+00
      0.00000000000000E+00   0.00000000000000E+00  -4.28599253601723E-16   0.00000000000000E+00   0.00000000000000E+00
      0.00000000000000E+00   0.00000000000000E+00  -1.06639551229254E-06   6.95986077846872E-23  -1.06639551229254E-06
      5.54268346269588E-17   9.00000000000000E-01   9.00000000000000E-01   0.00000000000000E+00   0.00000000000000E+00
      1.06639603393831E-06  -1.90224322161142E-22   1.06639603393831E-06   3.78993554858927E-16
      2.00000000000000E-01
      1.80000000000000E-01   1.80000000000000E-01   0.00000000000000E+00   0.00000000000000E+00   0.00000000000000E+00
      0.00000000000000E+00   0.00000000000000E+00  -4.16681442439242E-16   0.00000000000000E+00   0.00000000000000E+00
      0.00000000000000E+00   0.00000000000000E+00  -1.86400474772299E-06   1.49173958183221E-22  -1.86400474772299E-06
      4.96467833384072E-17   9.00000000000000E-01   9.00000000000000E-01   0.00000000000000E+00   0.00000000000000E+00
      1.86400680198824E-06   2.93693956458716E-22   1.86400680198824E-06   3.73888535647710E-16
      2.16666666666667E-01
      1.95000000000000E-01   1.95000000000000E-01   0.00000000000000E+00   0.00000000000000E+00   0.00000000000000E+00
      0.00000000000000E+00   0.00000000000000E+00  -4.04187887695720E-16   0.00000000000000E+00   0.00000000000000E+00
      0.00000000000000E+00   0.00000000000000E+00  -3.22550397804941E-06   2.45893452469823E-22  -3.22550397804941E-06
      4.38811082460169E-17   9.00000000000000E-01   9.00000000000000E-01   0.00000000000000E+00   0.00000000000000E+00
      3.22551097476869E-06   4.19716769129498E-23   3.22551097476869E-06   3.68776571498986E-16
      2.33333333333333E-01
      2.10000000000000E-01   2.10000000000000E-01   0.00000000000000E+00   0.00000000000000E+00   0.00000000000000E+00
      0.00000000000000E+00   0.00000000000000E+00  -3.90839818777748E-16   0.00000000000000E+00   0.00000000000000E+00
      0.00000000000000E+00   0.00000000000000E+00  -5.49500866852413E-06   3.64085543953011E-22  -5.49500866852413E-06
      3.81432170735733E-17   9.00000000000000E-01   9.00000000000000E-01   0.00000000000000E+00   0.00000000000000E+00
      5.49502859162045E-06   8.90971875600894E-23   5.49502859162045E-06   3.63657561845713E-16
      2.50000000000000E-01
      2.25000000000000E-01   2.25000000000000E-01   0.00000000000000E+00   0.00000000000000E+00   0.00000000000000E+00
      0.00000000000000E+00   0.00000000000000E+00  -3.76280749598883E-16   0.00000000000000E+00   0.00000000000000E+00
      0.00000000000000E+00   0.00000000000000E+00  -9.15184812531435E-06   4.69779229007099E-22  -9.15184812531435E-06
      3.24475833916117E-17   9.00000000000000E-01   9.00000000000000E-01   0.00000000000000E+00   0.00000000000000E+00
      9.15189481253408E-06   3.06584591606318E-23   9.15189481253408E-06   3.58531337207160E-16
      2.66666666666667E-01
      2.40000000000000E-01   2.40000000000000E-01   0.00000000000000E+00   0.00000000000000E+00   0.00000000000000E+00
      0.00000000000000E+00   0.00000000000000E+00  -3.60120894934320E-16   0.00000000000000E+00   0.00000000000000E+00
      0.00000000000000E+00   0.00000000000000E+00  -1.47857928744124E-05   5.07529640204963E-22  -1.47857928744124E-05
      2.68076062331427E-17   9.00000000000000E-01   9.00000000000000E-01   0.00000000000000E+00   0.00000000000000E+00
      1.47858811225138E-05  -8.35481415711492E-24   1.47858811225138E-05   3.53397641818068E-16
      2.83333333333333E-01
      2.55000000000000E-01   2.55000000000000E-01   0.00000000000000E+00   0.00000000000000E+00   0.00000000000000E+00
      0.00000000000000E+00   0.00000000000000E+00  -3.42016415527526E-16   0.00000000000000E+00   0.00000000000000E+00
      0.00000000000000E+00   0.00000000000000E+00  -2.30197479304054E-05   4.56327762472618E-22  -2.30197479304054E-05
      2.12330758076588E-17   9.00000000000000E-01   9.00000000000000E-01   0.00000000000000E+00   0.00000000000000E+00
      2.30198789517467E-05  -2.42837766940684E-23   2.30198789517467E-05   3.48256143429243E-16
      3.00000000000000E-01
      2.70000000000000E-01   2.70000000000000E-01   0.00000000000000E+00   0.00000000000000E+00   0.00000000000000E+00
      0.00000000000000E+00   0.00000000000000E+00  -3.21768976211876E-16   0.00000000000000E+00   0.00000000000000E+00
      0.00000000000000E+00   0.00000000000000E+00  -3.43747205310815E-05   3.35774029958056E-22  -3.43747205310815E-05
      1.57261097969566E-17   9.00000000000000E-01   9.00000000000000E-01   0.00000000000000E+00   0.00000000000000E+00
      3.43748303869485E-05  -1.82066455367683E-23   3.43748303869485E-05   3.43106489203664E-16
      3.16666666666667E-01
      2.85000000000000E-01   2.85000000000000E-01   0.00000000000000E+00   0.00000000000000E+00   0.00000000000000E+00
      0.00000000000000E+00   0.00000000000000E+00  -2.99271255470351E-16   0.00000000000000E+00   0.00000000000000E+00
      0.00000000000000E+00   0.00000000000000E+00  -4.92876312908240E-05   1.02471086248602E-22  -4.92876312908240E-05
      1.02882131754338E-17   9.00000000000000E-01   9.00000000000000E-01   0.00000000000000E+00   0.00000000000000E+00
      4.92877292376869E-05  -1.02249516084573E-23   4.92877292376869E-05   3.37948323632367E-16
      3.33333333333333E-01
      3.00000000000000E-01   3.00000000000000E-01   0.00000000000000E+00   0.00000000000000E+00   0.00000000000000E+00
      0.00000000000000E+00   0.00000000000000E+00  -2.74568136368556E-16   0.00000000000000E+00   0.00000000000000E+00
      0.00000000000000E+00   0.00000000000000E+00  -6.79861099490410E-05   3.14767136037897E-23  -6.79861099490410E-05
      4.91668392621773E-18   9.00000000000000E-01   9.00000000000000E-01   0.00000000000000E+00   0.00000000000000E+00
      6.79861842238418E-05  -4.29209207946587E-24   6.79861842238418E-05   3.32781363830316E-16
      3.50000000000000E-01
      3.15000000000000E-01   3.15000000000000E-01   0.00000000000000E+00   0.00000000000000E+00   0.00000000000000E+00
      0.00000000000000E+00   0.00000000000000E+00  -2.47795951530742E-16   0.00000000000000E+00   0.00000000000000E+00
      0.00000000000000E+00   0.00000000000000E+00  -9.05201438715388E-05   1.15971323477798E-23  -9.05201438715388E-05
     -3.93506742484896E-19   9.00000000000000E-01   9.00000000000000E-01   0.00000000000000E+00   0.00000000000000E+00
      9.05201943608199E-05  -1.45114023015528E-24   9.05201943608199E-05   3.27605416436413E-16
      3.66666666666667E-01
      3.30000000000000E-01   3.30000000000000E-01   0.00000000000000E+00   0.00000000000000E+00   0.00000000000000E+00
      0.00000000000000E+00   0.00000000000000E+00  -2.19127531261751E-16   0.00000000000000E+00   0.00000000000000E+00
      0.00000000000000E+00   0.00000000000000E+00  -1.16813647634644E-04   4.16518251161416E-24  -1.16813647634644E-04
     -5.64792572442931E-18   9.00000000000000E-01   9.00000000000000E-01   0.00000000000000E+00   0.00000000000000E+00
      1.16813681502306E-04  -4.27520336721461E-25   1.16813681502306E-04   3.22420379006314E-16
      3.83333333333333E-01
      3.45000000000000E-01   3.45000000000000E-01   0.00000000000000E+00   0.00000000000000E+00   0.00000000000000E+00
      0.00000000000000E+00   0.00000000000000E+00  -1.88741391028196E-16   0.00000000000000E+00   0.00000000000000E+00
      0.00000000000000E+00   0.00000000000000E+00  -1.46711964579989E-04   5.60743140375157E-25  -1.46711964579989E-04
     -1.08521074900754E-17   9.00000000000000E-01   9.00000000000000E-01   0.00000000000000E+00   0.00000000000000E+00
      1.46711987462123E-04  -9.68035106330121E-26   1.46711987462123E-04   3.17226238572997E-16
      4.00000000000000E-01
      3.60000000000000E-01   3.60000000000000E-01   0.00000000000000E+00   0.00000000000000E+00   0.00000000000000E+00
      0.00000000000000E+00   0.00000000000000E+00  -1.56815552311161E-16   0.00000000000000E+00   0.00000000000000E+00
      0.00000000000000E+00   0.00000000000000E+00  -1.80023965090536E-04  -4.12867068679611E-24  -1.80023965090536E-04
     -1.60111765660578E-17   9.00000000000000E-01   9.00000000000000E-01   0.00000000000000E+00   0.00000000000000E+00
      1.80023981065358E-04  -2.27115182420864E-26   1.80023981065358E-04   3.12022916739259E-16
      4.16666666666667E-01
      3.75000000000000E-01   3.75000000000000E-01   0.00000000000000E+00   0.00000000000000E+00   0.00000000000000E+00
      0.00000000000000E+00   0.00000000000000E+00  -1.23506875386897E-16   0.00000000000000E+00   0.00000000000000E+00
      0.00000000000000E+00   0.00000000000000E+00  -2.16533034751356E-04  -3.50689408306516E-24  -2.16533034751356E-04
     -2.11297437532201E-17   9.00000000000000E-01   9.00000000000000E-01   0.00000000000000E+00   0.00000000000000E+00
      2.16533046337474E-04  -1.57193690054555E-27   2.16533046337474E-04   3.06810319865307E-16
      4.33333333333333E-01
      3.90000000000000E-01   3.90000000000000E-01   0.00000000000000E+00   0.00000000000000E+00   0.00000000000000E+00
      0.00000000000000E+00   0.00000000000000E+00  -8.89365278128479E-17   0.00000000000000E+00   0.00000000000000E+00
      0.00000000000000E+00   0.00000000000000E+00  -2.56007103066573E-04  -1.23710745484875E-24  -2.56007103066573E-04
     -2.62118972109038E-17   9.00000000000000E-01   9.00000000000000E-01   0.00000000000000E+00   0.00000000000000E+00
      2.56007111743732E-04  -7.70444869091710E-27   2.56007111743732E-04   3.01588763230539E-16
      4.50000000000000E-01
      4.05000000000000E-01   4.05000000000000E-01   0.00000000000000E+00   0.00000000000000E+00   0.00000000000000E+00
      0.00000000000000E+00   0.00000000000000E+00  -5.32472001402492E-17   0.00000000000000E+00   0.00000000000000E+00
      0.00000000000000E+00   0.00000000000000E+00  -2.98244839643045E-04   3.23594527289920E-25  -2.98244839643045E-04
     -3.12612715693091E-17   9.00000000000000E-01   9.00000000000000E-01   0.00000000000000E+00   0.00000000000000E+00
      2.98244846358174E-04   2.51265776415055E-27   2.98244846358174E-04   2.96357785692083E-16
      4.66666666666667E-01
      4.20000000000000E-01   4.20000000000000E-01   0.00000000000000E+00   0.00000000000000E+00   0.00000000000000E+00
      0.00000000000000E+00   0.00000000000000E+00  -1.65228849970200E-17   0.00000000000000E+00   0.00000000000000E+00
      0.00000000000000E+00   0.00000000000000E+00  -3.43022949869901E-04  -6.47279830569774E-25  -3.43022949869901E-04
     -3.62810875128797E-17   9.00000000000000E-01   9.00000000000000E-01   0.00000000000000E+00   0.00000000000000E+00
      3.43022955188355E-04   3.50276126528325E-27   3.43022955188355E-04   2.91117842601959E-16
      4.83333333333333E-01
      4.35000000000000E-01   4.35000000000000E-01   0.00000000000000E+00   0.00000000000000E+00   0.00000000000000E+00
      0.00000000000000E+00   0.00000000000000E+00   2.11226663185369E-17   0.00000000000000E+00   0.00000000000000E+00
      0.00000000000000E+00   0.00000000000000E+00  -3.90158347955555E-04  -4.89408041856360E-25  -3.90158347955555E-04
     -4.12741911387074E-17   9.00000000000000E-01   9.00000000000000E-01   0.00000000000000E+00   0.00000000000000E+00
      3.90158352288323E-04   3.64581948277468E-27   3.90158352288323E-04   2.85868391826449E-16
      5.00000000000000E-01
      4.50000000000000E-01   4.50000000000000E-01   0.00000000000000E+00   0.00000000000000E+00   0.00000000000000E+00
      0.00000000000000E+00   0.00000000000000E+00   5.96297389601329E-17   0.00000000000000E+00   0.00000000000000E+00
      0.00000000000000E+00   0.00000000000000E+00  -4.39450689752632E-04  -6.69292008946365E-25  -4.39450689752632E-04
     -4.62431449935122E-17   9.00000000000000E-01   9.00000000000000E-01   0.00000000000000E+00   0.00000000000000E+00
      4.39450693317171E-04   4.23595533051398E-27   4.39450693317171E-04   2.80610087981656E-16
      5.16666666666667E-01
      4.65000000000000E-01   4.65000000000000E-01   0.00000000000000E+00   0.00000000000000E+00   0.00000000000000E+00
      0.00000000000000E+00   0.00000000000000E+00   9.88986479840744E-17   0.00000000000000E+00   0.00000000000000E+00
      0.00000000000000E+00   0.00000000000000E+00  -4.90743877158585E-04  -2.18810076584392E-25  -4.90743877158585E-04
     -5.11902441444639E-17   9.00000000000000E-01   9.00000000000000E-01   0.00000000000000E+00   0.00000000000000E+00
      4.90743880154073E-04   3.81810803460957E-27   4.90743880154073E-04   2.75341907293217E-16
      5.33333333333333E-01
      4.80000000000000E-01   4.80000000000000E-01   0.00000000000000E+00   0.00000000000000E+00   0.00000000000000E+00
      0.00000000000000E+00   0.00000000000000E+00   1.38892790760548E-16   0.00000000000000E+00   0.00000000000000E+00
      0.00000000000000E+00   0.00000000000000E+00  -5.43858245576451E-04  -2.47556906024782E-25  -5.43858245576451E-04
     -5.61175581682887E-17   9.00000000000000E-01   9.00000000000000E-01   0.00000000000000E+00   0.00000000000000E+00
      5.43858248094956E-04   6.30703990495030E-27   5.43858248094956E-04   2.70065134859326E-16
      5.50000000000000E-01
      4.95000000000000E-01   4.95000000000000E-01   0.00000000000000E+00   0.00000000000000E+00   0.00000000000000E+00
      0.00000000000000E+00   0.00000000000000E+00   1.79529336178314E-16   0.00000000000000E+00   0.00000000000000E+00
      0.00000000000000E+00   0.00000000000000E+00  -5.98657170278605E-04  -8.09344811957298E-28  -5.98657170278605E-04
     -6.10269554687852E-17   9.00000000000000E-01   9.00000000000000E-01   0.00000000000000E+00   0.00000000000000E+00
      5.98657172423214E-04   1.35174728376519E-27   5.98657172423214E-04   2.64778406785752E-16
      5.66666666666667E-01
      5.10000000000000E-01   5.10000000000000E-01   0.00000000000000E+00   0.00000000000000E+00   0.00000000000000E+00
      0.00000000000000E+00   0.00000000000000E+00   2.20764602559165E-16   0.00000000000000E+00   0.00000000000000E+00
      0.00000000000000E+00   0.00000000000000E+00  -6.54995680050109E-04   9.90989317545346E-27  -6.54995680050109E-04
     -6.59201395673436E-17   9.00000000000000E-01   9.00000000000000E-01   0.00000000000000E+00   0.00000000000000E+00
      6.54995681875447E-04   8.03054441947623E-28   6.54995681875447E-04   2.59482436167859E-16
      5.83333333333333E-01
      5.25000000000000E-01   5.25000000000000E-01   0.00000000000000E+00   0.00000000000000E+00   0.00000000000000E+00
      0.00000000000000E+00   0.00000000000000E+00   2.62560606892665E-16   0.00000000000000E+00   0.00000000000000E+00
      0.00000000000000E+00   0.00000000000000E+00  -7.12736324522543E-04   5.97087336552046E-26  -7.12736324522543E-04
     -7.07986599952010E-17   9.00000000000000E-01   9.00000000000000E-01   0.00000000000000E+00   0.00000000000000E+00
      7.12736326077420E-04   8.00091654719214E-28   7.12736326077420E-04   2.54177680900328E-16
      6.00000000000000E-01
      5.40000000000000E-01   5.40000000000000E-01   0.00000000000000E+00   0.00000000000000E+00   0.00000000000000E+00
      0.00000000000000E+00   0.00000000000000E+00   3.04854419925123E-16   0.00000000000000E+00   0.00000000000000E+00
      0.00000000000000E+00   0.00000000000000E+00  -7.71769457705334E-04   6.63036998241425E-27  -7.71769457705334E-04
     -7.56639341636566E-17   9.00000000000000E-01   9.00000000000000E-01   0.00000000000000E+00   0.00000000000000E+00
      7.71769459036302E-04   5.04268841875898E-28   7.71769459036302E-04   2.48862701248005E-16
      6.16666666666667E-01
      5.55000000000000E-01   5.55000000000000E-01   0.00000000000000E+00   0.00000000000000E+00   0.00000000000000E+00
      0.00000000000000E+00   0.00000000000000E+00   3.47617111954429E-16   0.00000000000000E+00   0.00000000000000E+00
      0.00000000000000E+00   0.00000000000000E+00  -8.31976413888237E-04   5.29481792643816E-26  -8.31976413888237E-04
     -8.05172553857019E-17   9.00000000000000E-01   9.00000000000000E-01   0.00000000000000E+00   0.00000000000000E+00
      8.31976415022362E-04   3.26507453117671E-28   8.31976415022362E-04   2.43538586505502E-16
      6.33333333333334E-01
      5.70000000000000E-01   5.70000000000000E-01   0.00000000000000E+00   0.00000000000000E+00   0.00000000000000E+00
      0.00000000000000E+00   0.00000000000000E+00   3.90818590651623E-16   0.00000000000000E+00   0.00000000000000E+00
      0.00000000000000E+00   0.00000000000000E+00  -8.93248164364837E-04   4.40603778546452E-26  -8.93248164364837E-04
     -8.53598085135031E-17   9.00000000000000E-01   9.00000000000000E-01   0.00000000000000E+00   0.00000000000000E+00
      8.93248165329989E-04  -9.61672883560033E-30   8.93248165329989E-04   2.38205685607264E-16
      6.50000000000000E-01
      5.85000000000000E-01   5.85000000000000E-01   0.00000000000000E+00   0.00000000000000E+00   0.00000000000000E+00
      0.00000000000000E+00   0.00000000000000E+00   4.34419112970247E-16   0.00000000000000E+00   0.00000000000000E+00
      0.00000000000000E+00   0.00000000000000E+00  -9.55490939093285E-04  -4.31231314054249E-26  -9.55490939093285E-04
     -9.01926794869277E-17   9.00000000000000E-01   9.00000000000000E-01   0.00000000000000E+00   0.00000000000000E+00
      9.55490939914691E-04  -1.17654067139041E-27   9.55490939914691E-04   2.32863193278462E-16
      6.66666666666667E-01
      6.00000000000000E-01   6.00000000000000E-01   0.00000000000000E+00   0.00000000000000E+00   0.00000000000000E+00
      0.00000000000000E+00   0.00000000000000E+00   4.78381500868609E-16   0.00000000000000E+00   0.00000000000000E+00
      0.00000000000000E+00   0.00000000000000E+00  -1.01861895802886E-03  -6.55414615014263E-26  -1.01861895802886E-03
     -9.50168641781351E-17   9.00000000000000E-01   9.00000000000000E-01   0.00000000000000E+00   0.00000000000000E+00
      1.01861895872704E-03   8.43849449143646E-28   1.01861895872704E-03   2.27510600654434E-16
      6.83333333333334E-01
      6.15000000000000E-01   6.15000000000000E-01   0.00000000000000E+00   0.00000000000000E+00   0.00000000000000E+00
      0.00000000000000E+00   0.00000000000000E+00   5.22693110896897E-16   0.00000000000000E+00   0.00000000000000E+00
      0.00000000000000E+00   0.00000000000000E+00  -1.08253926901334E-03  -6.49005769157901E-26  -1.08253926901334E-03
     -9.98332757869949E-17   9.00000000000000E-01   9.00000000000000E-01   0.00000000000000E+00   0.00000000000000E+00
      1.08253926960397E-03  -7.94247690858611E-28   1.08253926960397E-03   2.22149722666764E-16
      7.00000000000001E-01
      6.30000000000000E-01   6.30000000000000E-01   0.00000000000000E+00   0.00000000000000E+00   0.00000000000000E+00
      0.00000000000000E+00   0.00000000000000E+00   5.67324553098674E-16   0.00000000000000E+00   0.00000000000000E+00
      0.00000000000000E+00   0.00000000000000E+00  -1.14717606868984E-03  -5.03433496255211E-26  -1.14717606868984E-03
     -1.04642752333479E-16   9.00000000000000E-01   9.00000000000000E-01   0.00000000000000E+00   0.00000000000000E+00
      1.14717606918951E-03   5.57897569938144E-28   1.14717606918951E-03   2.16779825563908E-16
      7.16666666666667E-01
      6.45000000000001E-01   6.45000000000001E-01   0.00000000000000E+00   0.00000000000000E+00   0.00000000000000E+00
      0.00000000000000E+00   0.00000000000000E+00   6.12250153054889E-16   0.00000000000000E+00   0.00000000000000E+00
      0.00000000000000E+00   0.00000000000000E+00  -1.21245831620225E-03  -2.38776355035493E-26  -1.21245831620225E-03
     -1.09446061662454E-16   9.00000000000000E-01   9.00000000000000E-01   0.00000000000000E+00   0.00000000000000E+00
      1.21245831662429E-03  -8.16427300331731E-30   1.21245831662429E-03   2.11400416993482E-16
      7.33333333333334E-01
      6.60000000000001E-01   6.60000000000001E-01   0.00000000000000E+00   0.00000000000000E+00   0.00000000000000E+00
      0.00000000000000E+00   0.00000000000000E+00   6.57445980019575E-16   0.00000000000000E+00   0.00000000000000E+00
      0.00000000000000E+00   0.00000000000000E+00  -1.27832070141723E-03   1.53342776548832E-26  -1.27832070141723E-03
     -1.14243907379755E-16   9.00000000000000E-01   9.00000000000000E-01   0.00000000000000E+00   0.00000000000000E+00
      1.27832070177337E-03  -6.65984564728050E-30   1.27832070177337E-03   2.06011257948718E-16
      7.50000000000001E-01
      6.75000000000001E-01   6.75000000000001E-01   0.00000000000000E+00   0.00000000000000E+00   0.00000000000000E+00
      0.00000000000000E+00   0.00000000000000E+00   7.02902860576023E-16   0.00000000000000E+00   0.00000000000000E+00
      0.00000000000000E+00   0.00000000000000E+00  -1.34469493109310E-03   1.03072866002479E-26  -1.34469493109310E-03
     -1.19036932717660E-16   9.00000000000000E-01   9.00000000000000E-01   0.00000000000000E+00   0.00000000000000E+00
      1.34469493139309E-03   4.85540480517682E-30   1.34469493139309E-03   2.00614287197210E-16
      7.66666666666667E-01
      6.90000000000001E-01   6.90000000000001E-01   0.00000000000000E+00   0.00000000000000E+00   0.00000000000000E+00
      0.00000000000000E+00   0.00000000000000E+00   7.48599628609427E-16   0.00000000000000E+00   0.00000000000000E+00
      0.00000000000000E+00   0.00000000000000E+00  -1.41152470513647E-03  -1.46392953551782E-26  -1.41152470513647E-03
     -1.23825718784368E-16   9.00000000000000E-01   9.00000000000000E-01   0.00000000000000E+00   0.00000000000000E+00
      1.41152470538917E-03   3.01121310113188E-30   1.41152470538917E-03   1.95208726490860E-16
      7.83333333333334E-01
      7.05000000000001E-01   7.05000000000001E-01   0.00000000000000E+00   0.00000000000000E+00   0.00000000000000E+00
      0.00000000000000E+00   0.00000000000000E+00   7.94518504366271E-16   0.00000000000000E+00   0.00000000000000E+00
      0.00000000000000E+00   0.00000000000000E+00  -1.47875762837033E-03  -2.52598019516627E-26  -1.47875762837033E-03
     -1.28610813841630E-16   9.00000000000000E-01   9.00000000000000E-01   0.00000000000000E+00   0.00000000000000E+00
      1.47875762858289E-03  -2.23114583450209E-30   1.47875762858289E-03   1.89794145628213E-16
      8.00000000000001E-01
      7.20000000000001E-01   7.20000000000001E-01   0.00000000000000E+00   0.00000000000000E+00   0.00000000000000E+00
      0.00000000000000E+00   0.00000000000000E+00   8.40642630832090E-16   0.00000000000000E+00   0.00000000000000E+00