DF-ISE text

Info {
  version   = 1.0
  type      = xyplot
  datasets  = [
    "time"
    "gate OuterVoltage" "gate InnerVoltage" "gate QuasiFermiPotential" "gate DisplacementCurrent" "gate eCurrent"
    "gate hCurrent" "gate TotalCurrent" "gate Charge" "source OuterVoltage" "source InnerVoltage"
    "source QuasiFermiPotential" "source DisplacementCurrent" "source eCurrent" "source hCurrent" "source TotalCurrent"
    "source Charge" "drain OuterVoltage" "drain InnerVoltage" "drain QuasiFermiPotential" "drain DisplacementCurrent"
    "drain eCurrent" "drain hCurrent" "drain TotalCurrent" "drain Charge" ]
  functions = [
    Time
    OuterVoltage InnerVoltage QuasiFermiPotential DisplacementCurrent eCurrent
    hCurrent TotalCurrent Charge OuterVoltage InnerVoltage
    QuasiFermiPotential DisplacementCurrent eCurrent hCurrent TotalCurrent
    Charge OuterVoltage InnerVoltage QuasiFermiPotential DisplacementCurrent
    eCurrent hCurrent TotalCurrent Charge ]
}

Data {
      0.00000000000000E+00
      0.00000000000000E+00   0.00000000000000E+00   0.00000000000000E+00   0.00000000000000E+00   0.00000000000000E+00
      0.00000000000000E+00   0.00000000000000E+00   4.98077437609186E-16   0.00000000000000E+00   0.00000000000000E+00
      0.00000000000000E+00   0.00000000000000E+00   2.00370359310303E-08   4.44454353389738E-16   2.00370363754846E-08
     -1.16981367652234E-16  -7.50000000000000E-01  -7.50000000000000E-01   0.00000000000000E+00   0.00000000000000E+00
     -2.00370372789185E-08  -2.20660871642318E-12  -2.00392438876350E-08  -3.82694861246720E-16
      1.66666666666667E-02
     -1.66666666666667E-03  -1.66666666666667E-03   0.00000000000000E+00   0.00000000000000E+00   0.00000000000000E+00
      0.00000000000000E+00   0.00000000000000E+00   4.96883984395286E-16   0.00000000000000E+00   0.00000000000000E+00
      0.00000000000000E+00   0.00000000000000E+00   2.12249898225044E-08   1.11976521944503E-14   2.12250010201566E-08
     -1.16361078775975E-16  -7.50000000000000E-01  -7.50000000000000E-01   0.00000000000000E+00   0.00000000000000E+00
     -2.12250021261740E-08   5.51475874759326E-13  -2.12244506502993E-08  -3.82128947217780E-16
      3.33333333333333E-02
     -3.33333333333333E-03  -3.33333333333333E-03   0.00000000000000E+00   0.00000000000000E+00   0.00000000000000E+00
      0.00000000000000E+00   0.00000000000000E+00   4.95690144467742E-16   0.00000000000000E+00   0.00000000000000E+00
      0.00000000000000E+00   0.00000000000000E+00   2.24821981836575E-08  -5.23702824438551E-15   2.24821929466292E-08
     -1.15740620194324E-16  -7.50000000000000E-01  -7.50000000000000E-01   0.00000000000000E+00   0.00000000000000E+00
     -2.24821973794884E-08  -2.46001689250280E-12  -2.24846573963809E-08  -3.81562952059406E-16
      5.00000000000000E-02
     -5.00000000000000E-03  -5.00000000000000E-03   0.00000000000000E+00   0.00000000000000E+00   0.00000000000000E+00
      0.00000000000000E+00   0.00000000000000E+00   4.94495911690258E-16   0.00000000000000E+00   0.00000000000000E+00
      0.00000000000000E+00   0.00000000000000E+00   2.38143525312786E-08  -7.31232859039113E-14   2.38142794079927E-08
     -1.15119992213425E-16  -7.50000000000000E-01  -7.50000000000000E-01   0.00000000000000E+00   0.00000000000000E+00
     -2.38142774103375E-08  -9.31935976609163E-13  -2.38152093463141E-08  -3.80996872790242E-16
      6.66666666666667E-02
     -6.66666666666667E-03  -6.66666666666667E-03   0.00000000000000E+00   0.00000000000000E+00   0.00000000000000E+00
      0.00000000000000E+00   0.00000000000000E+00   4.93301285031280E-16   0.00000000000000E+00   0.00000000000000E+00
      0.00000000000000E+00   0.00000000000000E+00   2.52248756640133E-08   5.76607871989246E-16   2.52248762406212E-08
     -1.14499195135961E-16  -7.50000000000000E-01  -7.50000000000000E-01   0.00000000000000E+00   0.00000000000000E+00
     -2.52248763294286E-08   1.38893877648779E-12  -2.52234873906521E-08  -3.80430711285723E-16
      8.33333333333333E-02
     -8.33333333333333E-03  -8.33333333333333E-03   0.00000000000000E+00   0.00000000000000E+00   0.00000000000000E+00
      0.00000000000000E+00   0.00000000000000E+00   4.92106261437343E-16   0.00000000000000E+00   0.00000000000000E+00
      0.00000000000000E+00   0.00000000000000E+00   2.67183413694987E-08  -2.08870044596409E-15   2.67183392807983E-08
     -1.13878229284277E-16  -7.50000000000000E-01  -7.50000000000000E-01   0.00000000000000E+00   0.00000000000000E+00
     -2.67183391519932E-08   2.42762428562803E-12  -2.67159115277076E-08  -3.79864467422472E-16
      1.00000000000000E-01
     -1.00000000000000E-02  -1.00000000000000E-02   0.00000000000000E+00   0.00000000000000E+00   0.00000000000000E+00
      0.00000000000000E+00   0.00000000000000E+00   4.90910837649807E-16   0.00000000000000E+00   0.00000000000000E+00
      0.00000000000000E+00   0.00000000000000E+00   2.82995798292172E-08  -6.68551367470040E-15   2.82995731437035E-08
     -1.13257095010008E-16  -7.50000000000000E-01  -7.50000000000000E-01   0.00000000000000E+00   0.00000000000000E+00
     -2.82995726534125E-08   1.40419807110870E-12  -2.82981684553414E-08  -3.79298141043655E-16
      1.16666666666667E-01
     -1.16666666666667E-02  -1.16666666666667E-02   0.00000000000000E+00   0.00000000000000E+00   0.00000000000000E+00
      0.00000000000000E+00   0.00000000000000E+00   4.89715011495271E-16   0.00000000000000E+00   0.00000000000000E+00
      0.00000000000000E+00   0.00000000000000E+00   2.99739267305113E-08  -8.48529651952663E-14   2.99738418775461E-08
     -1.12635792683146E-16  -7.50000000000000E-01  -7.50000000000000E-01   0.00000000000000E+00   0.00000000000000E+00
     -2.99739557774498E-08  -7.50129147827340E-13  -2.99747059065976E-08  -3.78731733198423E-16
      1.33333333333333E-01
     -1.33333333333333E-02  -1.33333333333333E-02   0.00000000000000E+00   0.00000000000000E+00   0.00000000000000E+00
      0.00000000000000E+00   0.00000000000000E+00   4.88518776802324E-16   0.00000000000000E+00   0.00000000000000E+00
      0.00000000000000E+00   0.00000000000000E+00   3.17470528607894E-08  -1.03481570435439E-13   3.17469493792189E-08
     -1.12014322704864E-16  -7.50000000000000E-01  -7.50000000000000E-01   0.00000000000000E+00   0.00000000000000E+00
     -3.17470658442374E-08  -2.20309016658238E-12  -3.17492689344039E-08  -3.78165240894881E-16
      1.50000000000000E-01
     -1.50000000000000E-02  -1.50000000000000E-02   0.00000000000000E+00   0.00000000000000E+00   0.00000000000000E+00
      0.00000000000000E+00   0.00000000000000E+00   4.87322131409327E-16   0.00000000000000E+00   0.00000000000000E+00
      0.00000000000000E+00   0.00000000000000E+00   3.36247061461095E-08  -1.25644372071653E-13   3.36245805017374E-08
     -1.11392685492247E-16  -7.50000000000000E-01  -7.50000000000000E-01   0.00000000000000E+00   0.00000000000000E+00
     -3.36247000727447E-08  -2.20267582969139E-12  -3.36269027485744E-08  -3.77598665319698E-16
      1.66666666666667E-01
     -1.66666666666667E-02  -1.66666666666667E-02   0.00000000000000E+00   0.00000000000000E+00   0.00000000000000E+00
      0.00000000000000E+00   0.00000000000000E+00   4.86125071908282E-16   0.00000000000000E+00   0.00000000000000E+00
      0.00000000000000E+00   0.00000000000000E+00   3.56128789183986E-08  -9.04369042046478E-14   3.56127884814944E-08
     -1.10770881492746E-16  -7.50000000000000E-01  -7.50000000000000E-01   0.00000000000000E+00   0.00000000000000E+00
     -3.56129053570891E-08  -9.73836945237823E-13  -3.56138791940344E-08  -3.77032006525440E-16
      1.83333333333333E-01
     -1.83333333333333E-02  -1.83333333333333E-02   0.00000000000000E+00   0.00000000000000E+00   0.00000000000000E+00
      0.00000000000000E+00   0.00000000000000E+00   4.84927595007519E-16   0.00000000000000E+00   0.00000000000000E+00
      0.00000000000000E+00   0.00000000000000E+00   3.77180445342831E-08  -1.13856384633250E-13   3.77179306778985E-08
     -1.10148911174291E-16  -7.50000000000000E-01  -7.50000000000000E-01   0.00000000000000E+00   0.00000000000000E+00
     -3.77180505307313E-08   8.02430765026057E-13  -3.77172480999663E-08  -3.76465264666759E-16
      2.00000000000000E-01
     -2.00000000000000E-02  -2.00000000000000E-02   0.00000000000000E+00   0.00000000000000E+00   0.00000000000000E+00
      0.00000000000000E+00   0.00000000000000E+00   4.83729697079959E-16   0.00000000000000E+00   0.00000000000000E+00
      0.00000000000000E+00   0.00000000000000E+00   3.99468795590839E-08  -1.34544819456726E-13   3.99467450142645E-08
     -1.09526775034065E-16  -7.50000000000000E-01  -7.50000000000000E-01   0.00000000000000E+00   0.00000000000000E+00
     -3.99468662580694E-08   2.01480466944818E-12  -3.99448514533999E-08  -3.75898439703456E-16
      2.16666666666667E-01
     -2.16666666666667E-02  -2.16666666666667E-02   0.00000000000000E+00   0.00000000000000E+00   0.00000000000000E+00
      0.00000000000000E+00   0.00000000000000E+00   4.82531373027740E-16   0.00000000000000E+00   0.00000000000000E+00
      0.00000000000000E+00   0.00000000000000E+00   4.23064857097204E-08  -3.87921042433607E-14   4.23064469176161E-08
     -1.08904473597629E-16  -7.50000000000000E-01  -7.50000000000000E-01   0.00000000000000E+00   0.00000000000000E+00
     -4.23064448647541E-08   1.27754959506605E-12  -4.23051673151590E-08  -3.75331530134388E-16
      2.33333333333333E-01
     -2.33333333333333E-02  -2.33333333333333E-02   0.00000000000000E+00   0.00000000000000E+00   0.00000000000000E+00
      0.00000000000000E+00   0.00000000000000E+00   4.81332622934337E-16   0.00000000000000E+00   0.00000000000000E+00
      0.00000000000000E+00   0.00000000000000E+00   4.48046919213435E-08  -1.32188789039885E-13   4.48045597325544E-08
     -1.08282007408672E-16  -7.50000000000000E-01  -7.50000000000000E-01   0.00000000000000E+00   0.00000000000000E+00
     -4.48046829245462E-08  -1.21309143233073E-12  -4.48058960159786E-08  -3.74764540064417E-16
      2.50000000000000E-01
     -2.50000000000000E-02  -2.50000000000000E-02   0.00000000000000E+00   0.00000000000000E+00   0.00000000000000E+00
      0.00000000000000E+00   0.00000000000000E+00   4.80133438591463E-16   0.00000000000000E+00   0.00000000000000E+00
      0.00000000000000E+00   0.00000000000000E+00   4.74498526362616E-08  -9.74151469768506E-14   4.74497552211146E-08
     -1.07659377058287E-16  -7.50000000000000E-01  -7.50000000000000E-01   0.00000000000000E+00   0.00000000000000E+00
     -4.74498766451835E-08  -5.00466215986536E-12  -4.74548813073434E-08  -3.74197465051353E-16
      2.66666666666667E-01
     -2.66666666666667E-02  -2.66666666666667E-02   0.00000000000000E+00   0.00000000000000E+00   0.00000000000000E+00
      0.00000000000000E+00   0.00000000000000E+00   4.78933816980583E-16   0.00000000000000E+00   0.00000000000000E+00
      0.00000000000000E+00   0.00000000000000E+00   5.02506211699586E-08  -1.33965431931963E-13   5.02504872045266E-08
     -1.07036583153397E-16  -7.50000000000000E-01  -7.50000000000000E-01   0.00000000000000E+00   0.00000000000000E+00
     -5.02506119822914E-08  -5.37937431778876E-12  -5.02559913566092E-08  -3.73630306104652E-16
      2.83333333333333E-01
     -2.83333333333333E-02  -2.83333333333333E-02   0.00000000000000E+00   0.00000000000000E+00   0.00000000000000E+00
      0.00000000000000E+00   0.00000000000000E+00   4.77733754099528E-16   0.00000000000000E+00   0.00000000000000E+00
      0.00000000000000E+00   0.00000000000000E+00   5.32157571952406E-08  -9.47670738747127E-14   5.32156624281667E-08
     -1.06413626337651E-16  -7.50000000000000E-01  -7.50000000000000E-01   0.00000000000000E+00   0.00000000000000E+00
     -5.32157843664249E-08  -3.25783251505749E-12  -5.32190421989399E-08  -3.73063063425193E-16
      3.00000000000000E-01
     -3.00000000000000E-02  -3.00000000000000E-02   0.00000000000000E+00   0.00000000000000E+00   0.00000000000000E+00
      0.00000000000000E+00   0.00000000000000E+00   4.76533245776224E-16   0.00000000000000E+00   0.00000000000000E+00
      0.00000000000000E+00   0.00000000000000E+00   5.63548417755262E-08  -1.16252250208624E-13   5.63547255232760E-08
     -1.05790507283449E-16  -7.50000000000000E-01  -7.50000000000000E-01   0.00000000000000E+00   0.00000000000000E+00
     -5.63548495874945E-08  -1.94541763301538E-12  -5.63567950051275E-08  -3.72495737067209E-16
      3.16666666666667E-01
     -3.16666666666667E-02  -3.16666666666667E-02   0.00000000000000E+00   0.00000000000000E+00   0.00000000000000E+00
      0.00000000000000E+00   0.00000000000000E+00   4.75332287480189E-16   0.00000000000000E+00   0.00000000000000E+00
      0.00000000000000E+00   0.00000000000000E+00   5.96780390388835E-08  -1.17053080926434E-13   5.96779219858026E-08
     -1.05167226700970E-16  -7.50000000000000E-01  -7.50000000000000E-01   0.00000000000000E+00   0.00000000000000E+00
     -5.96780459940387E-08  -6.34523473304778E-12  -5.96843912287717E-08  -3.71928326888222E-16
      3.33333333333333E-01
     -3.33333333333333E-02  -3.33333333333333E-02   0.00000000000000E+00   0.00000000000000E+00   0.00000000000000E+00
      0.00000000000000E+00   0.00000000000000E+00   4.74130872481602E-16   0.00000000000000E+00   0.00000000000000E+00
      0.00000000000000E+00   0.00000000000000E+00   6.31962251274400E-08  -3.72614572893927E-16   6.31962247548254E-08
     -1.04543785342570E-16  -7.50000000000000E-01  -7.50000000000000E-01   0.00000000000000E+00   0.00000000000000E+00
     -6.31962250577444E-08  -9.89200300811634E-12  -6.32061170607525E-08  -3.71360830488843E-16
      3.50000000000000E-01
     -3.50000000000000E-02  -3.50000000000000E-02   0.00000000000000E+00   0.00000000000000E+00   0.00000000000000E+00
      0.00000000000000E+00   0.00000000000000E+00   4.72928998712515E-16   0.00000000000000E+00   0.00000000000000E+00
      0.00000000000000E+00   0.00000000000000E+00   6.69210890168666E-08  -6.44503735877044E-15   6.69210825718293E-08
     -1.03920183973429E-16  -7.50000000000000E-01  -7.50000000000000E-01   0.00000000000000E+00   0.00000000000000E+00
     -6.69210821274564E-08  -9.89433961927110E-12  -6.69309764670756E-08  -3.70793250870556E-16
      3.66666666666667E-01
     -3.66666666666667E-02  -3.66666666666667E-02   0.00000000000000E+00   0.00000000000000E+00   0.00000000000000E+00
      0.00000000000000E+00   0.00000000000000E+00   4.71726661978083E-16   0.00000000000000E+00   0.00000000000000E+00
      0.00000000000000E+00   0.00000000000000E+00   7.08643280436817E-08  -1.09116159820347E-13   7.08642189275218E-08
     -1.03296423402016E-16  -7.50000000000000E-01  -7.50000000000000E-01   0.00000000000000E+00   0.00000000000000E+00
     -7.08643418083896E-08  -1.08133043695118E-11  -7.08751551127591E-08  -3.70225588742029E-16
      3.83333333333333E-01
     -3.83333333333333E-02  -3.83333333333333E-02   0.00000000000000E+00   0.00000000000000E+00   0.00000000000000E+00
      0.00000000000000E+00   0.00000000000000E+00   4.70523854218256E-16   0.00000000000000E+00   0.00000000000000E+00
      0.00000000000000E+00   0.00000000000000E+00   7.50383856236207E-08  -1.00004583320969E-13   7.50382856190374E-08
     -1.02672504486817E-16  -7.50000000000000E-01  -7.50000000000000E-01   0.00000000000000E+00   0.00000000000000E+00
     -7.50384083713997E-08  -7.33743372593908E-12  -7.50457458051256E-08  -3.69657840855280E-16
      4.00000000000000E-01
     -4.00000000000000E-02  -4.00000000000000E-02   0.00000000000000E+00   0.00000000000000E+00   0.00000000000000E+00
      0.00000000000000E+00   0.00000000000000E+00   4.69320569738836E-16   0.00000000000000E+00   0.00000000000000E+00
      0.00000000000000E+00   0.00000000000000E+00   7.94567748973780E-08   4.91883392036243E-15   7.94567798162119E-08
     -1.02048428119414E-16  -7.50000000000000E-01  -7.50000000000000E-01   0.00000000000000E+00   0.00000000000000E+00
     -7.94567796605363E-08  -1.81278771547636E-11  -7.94749075376911E-08  -3.69090006343552E-16
      4.16666666666667E-01
     -4.16666666666667E-02  -4.16666666666667E-02   0.00000000000000E+00   0.00000000000000E+00   0.00000000000000E+00
      0.00000000000000E+00   0.00000000000000E+00   4.68116805893543E-16   0.00000000000000E+00   0.00000000000000E+00
      0.00000000000000E+00   0.00000000000000E+00   8.41345078016462E-08  -1.04848012710977E-14   8.41344973168449E-08
     -1.01424195228493E-16  -7.50000000000000E-01  -7.50000000000000E-01   0.00000000000000E+00   0.00000000000000E+00
     -8.41344974714633E-08  -2.21141780071271E-11  -8.41566116494704E-08  -3.68522087738404E-16
      4.33333333333333E-01
     -4.33333333333333E-02  -4.33333333333333E-02   0.00000000000000E+00   0.00000000000000E+00   0.00000000000000E+00
      0.00000000000000E+00   0.00000000000000E+00   4.66912558291597E-16   0.00000000000000E+00   0.00000000000000E+00
      0.00000000000000E+00   0.00000000000000E+00   8.90861725375399E-08  -1.16136985448352E-13   8.90860564005545E-08
     -1.00799806776307E-16  -7.50000000000000E-01  -7.50000000000000E-01   0.00000000000000E+00   0.00000000000000E+00
     -8.90861767163792E-08  -1.29698052662001E-11  -8.90991465216454E-08  -3.67954086047825E-16
      4.50000000000000E-01
     -4.50000000000000E-02  -4.50000000000000E-02   0.00000000000000E+00   0.00000000000000E+00   0.00000000000000E+00
      0.00000000000000E+00   0.00000000000000E+00   4.65707818580905E-16   0.00000000000000E+00   0.00000000000000E+00
      0.00000000000000E+00   0.00000000000000E+00   9.43273570581112E-08  -9.25077285315544E-14   9.43272645503827E-08
     -1.00175263784535E-16  -7.50000000000000E-01  -7.50000000000000E-01   0.00000000000000E+00   0.00000000000000E+00
     -9.43273829072437E-08   8.87674269613875E-12  -9.43185061645476E-08  -3.67385998337824E-16
      4.66666666666667E-01
     -4.66666666666667E-02  -4.66666666666667E-02   0.00000000000000E+00   0.00000000000000E+00   0.00000000000000E+00
      0.00000000000000E+00   0.00000000000000E+00   4.64502583273731E-16   0.00000000000000E+00   0.00000000000000E+00
      0.00000000000000E+00   0.00000000000000E+00   9.98745539085760E-08  -1.32649704761567E-13   9.98744212588713E-08
     -9.95505673012010E-17  -7.50000000000000E-01  -7.50000000000000E-01   0.00000000000000E+00   0.00000000000000E+00
     -9.98745392088011E-08   3.36745883708840E-11  -9.98408646204302E-08  -3.66817826831076E-16
      4.83333333333333E-01
     -4.83333333333333E-02  -4.83333333333333E-02   0.00000000000000E+00   0.00000000000000E+00   0.00000000000000E+00
      0.00000000000000E+00   0.00000000000000E+00   4.63296846642678E-16   0.00000000000000E+00   0.00000000000000E+00
      0.00000000000000E+00   0.00000000000000E+00   1.05744275106455E-07   9.72767204639677E-15   1.05744284834127E-07
     -9.89257184273602E-17  -7.50000000000000E-01  -7.50000000000000E-01   0.00000000000000E+00   0.00000000000000E+00
     -1.05744285308481E-07   2.31171479161203E-11  -1.05721168160565E-07  -3.66249571769653E-16
      5.00000000000000E-01
     -5.00000000000000E-02  -5.00000000000000E-02   0.00000000000000E+00   0.00000000000000E+00   0.00000000000000E+00
      0.00000000000000E+00   0.00000000000000E+00   4.62090605767940E-16   0.00000000000000E+00   0.00000000000000E+00
      0.00000000000000E+00   0.00000000000000E+00   1.11956383369743E-07  -1.34832047105770E-13   1.11956248537696E-07
     -9.83007183030639E-17  -7.50000000000000E-01  -7.50000000000000E-01   0.00000000000000E+00   0.00000000000000E+00
     -1.11956361366404E-07   2.70894462090916E-11  -1.11929271920194E-07  -3.65681236309738E-16
      5.16666666666667E-01
     -5.16666666666667E-02  -5.16666666666667E-02   0.00000000000000E+00   0.00000000000000E+00   0.00000000000000E+00
      0.00000000000000E+00   0.00000000000000E+00   4.60883848743849E-16   0.00000000000000E+00   0.00000000000000E+00
      0.00000000000000E+00   0.00000000000000E+00   1.18530880538496E-07  -9.25878509132975E-14   1.18530787950646E-07
     -9.76755681400453E-17  -7.50000000000000E-01  -7.50000000000000E-01   0.00000000000000E+00   0.00000000000000E+00
     -1.18530897821837E-07   1.61253237630757E-11  -1.18514772498074E-07  -3.65112814636617E-16
      5.33333333333333E-01
     -5.33333333333333E-02  -5.33333333333333E-02   0.00000000000000E+00   0.00000000000000E+00   0.00000000000000E+00
      0.00000000000000E+00   0.00000000000000E+00   4.59676570118486E-16   0.00000000000000E+00   0.00000000000000E+00
      0.00000000000000E+00   0.00000000000000E+00   1.25489089679347E-07  -1.25188526253375E-13   1.25488964490821E-07
     -9.70502691849521E-17  -7.50000000000000E-01  -7.50000000000000E-01   0.00000000000000E+00   0.00000000000000E+00
     -1.25489071626749E-07   1.23021794054573E-11  -1.25476769447344E-07  -3.64544307826603E-16
      5.50000000000000E-01
     -5.50000000000000E-02  -5.50000000000000E-02   0.00000000000000E+00   0.00000000000000E+00   0.00000000000000E+00
      0.00000000000000E+00   0.00000000000000E+00   4.58468763364886E-16   0.00000000000000E+00   0.00000000000000E+00
      0.00000000000000E+00   0.00000000000000E+00   1.32853032724800E-07  -1.32946948327957E-13   1.32852899777852E-07
     -9.64248227335158E-17  -7.50000000000000E-01  -7.50000000000000E-01   0.00000000000000E+00   0.00000000000000E+00
     -1.32853000854137E-07   2.83682990808925E-11  -1.32824632555056E-07  -3.63975716163453E-16
      5.66666666666667E-01
     -5.66666666666667E-02  -5.66666666666667E-02   0.00000000000000E+00   0.00000000000000E+00   0.00000000000000E+00
      0.00000000000000E+00   0.00000000000000E+00   4.57260421930720E-16   0.00000000000000E+00   0.00000000000000E+00
      0.00000000000000E+00   0.00000000000000E+00   1.40645763504356E-07  -8.84809573211650E-14   1.40645675023399E-07
     -9.57992301368832E-17  -7.50000000000000E-01  -7.50000000000000E-01   0.00000000000000E+00   0.00000000000000E+00
     -1.40645774347600E-07   6.51837986874468E-11  -1.40580590548912E-07  -3.63407040157521E-16
      5.83333333333333E-01
     -5.83333333333333E-02  -5.83333333333333E-02   0.00000000000000E+00   0.00000000000000E+00   0.00000000000000E+00
      0.00000000000000E+00   0.00000000000000E+00   4.56051539205208E-16   0.00000000000000E+00   0.00000000000000E+00
      0.00000000000000E+00   0.00000000000000E+00   1.48891690410576E-07  -1.23659996764305E-13   1.48891566750579E-07
     -9.51734928000694E-17  -7.50000000000000E-01  -7.50000000000000E-01   0.00000000000000E+00   0.00000000000000E+00
     -1.48891662563378E-07   1.12675836117781E-10  -1.48778986727261E-07  -3.62838280490174E-16
      6.00000000000000E-01
     -6.00000000000000E-02  -6.00000000000000E-02   0.00000000000000E+00   0.00000000000000E+00   0.00000000000000E+00
      0.00000000000000E+00   0.00000000000000E+00   4.54842107143936E-16   0.00000000000000E+00   0.00000000000000E+00
      0.00000000000000E+00   0.00000000000000E+00   1.57615900980750E-07  -1.08423231946579E-14   1.57615890138427E-07
     -9.45476121844190E-17  -7.50000000000000E-01  -7.50000000000000E-01   0.00000000000000E+00   0.00000000000000E+00
     -1.57615889512453E-07   5.94772711082314E-11  -1.57556412241345E-07  -3.62269436489274E-16
      6.16666666666667E-01
     -6.16666666666667E-02  -6.16666666666667E-02   0.00000000000000E+00   0.00000000000000E+00   0.00000000000000E+00
      0.00000000000000E+00   0.00000000000000E+00   4.53632121995091E-16   0.00000000000000E+00   0.00000000000000E+00
      0.00000000000000E+00   0.00000000000000E+00   1.66846710831788E-07  -1.08224086120291E-13   1.66846602607702E-07
     -9.39215898073934E-17  -7.50000000000000E-01  -7.50000000000000E-01   0.00000000000000E+00   0.00000000000000E+00
     -1.66846676486013E-07   1.28938620176701E-10  -1.66717737865837E-07  -3.61700512526184E-16
      6.33333333333334E-01
     -6.33333333333334E-02  -6.33333333333334E-02   0.00000000000000E+00   0.00000000000000E+00   0.00000000000000E+00
      0.00000000000000E+00   0.00000000000000E+00   4.52421570024554E-16   0.00000000000000E+00   0.00000000000000E+00
      0.00000000000000E+00   0.00000000000000E+00   1.76613687850176E-07  -6.37562709206636E-14   1.76613624093906E-07
     -9.32954272626945E-17  -7.50000000000000E-01  -7.50000000000000E-01   0.00000000000000E+00   0.00000000000000E+00
     -1.76613696440594E-07   1.56530151127074E-10  -1.76457166289467E-07  -3.61131502374353E-16
      6.50000000000000E-01
     -6.50000000000000E-02  -6.50000000000000E-02   0.00000000000000E+00   0.00000000000000E+00   0.00000000000000E+00
      0.00000000000000E+00   0.00000000000000E+00   4.51210443650340E-16   0.00000000000000E+00   0.00000000000000E+00
      0.00000000000000E+00   0.00000000000000E+00   1.86948100404761E-07  -9.10657191524459E-14   1.86948009339042E-07
     -9.26691261886449E-17  -7.50000000000000E-01  -7.50000000000000E-01   0.00000000000000E+00   0.00000000000000E+00
     -1.86948080373780E-07   1.77467312100581E-10  -1.86770613061679E-07  -3.60562406831904E-16
      6.66666666666667E-01
     -6.66666666666667E-02  -6.66666666666667E-02   0.00000000000000E+00   0.00000000000000E+00   0.00000000000000E+00
      0.00000000000000E+00   0.00000000000000E+00   4.49998734392533E-16   0.00000000000000E+00   0.00000000000000E+00
      0.00000000000000E+00   0.00000000000000E+00   1.97882553415811E-07  -1.22610591895930E-13   1.97882430805219E-07
     -9.20426882951604E-17  -7.50000000000000E-01  -7.50000000000000E-01   0.00000000000000E+00   0.00000000000000E+00
     -1.97882494056368E-07   2.30085691534374E-10  -1.97652408364834E-07  -3.59993226146671E-16
      6.83333333333334E-01
     -6.83333333333334E-02  -6.83333333333334E-02   0.00000000000000E+00   0.00000000000000E+00   0.00000000000000E+00
      0.00000000000000E+00   0.00000000000000E+00   4.48786433699863E-16   0.00000000000000E+00   0.00000000000000E+00
      0.00000000000000E+00   0.00000000000000E+00   2.09450385784559E-07  -6.18453792687523E-14   2.09450323939179E-07
     -9.14161153516851E-17  -7.50000000000000E-01  -7.50000000000000E-01   0.00000000000000E+00   0.00000000000000E+00
     -2.09450379862658E-07   3.78433155486714E-10  -2.09071946707172E-07  -3.59423961029342E-16
      7.00000000000001E-01
     -7.00000000000000E-02  -7.00000000000000E-02   0.00000000000000E+00   0.00000000000000E+00   0.00000000000000E+00
      0.00000000000000E+00   0.00000000000000E+00   4.47573533557765E-16   0.00000000000000E+00   0.00000000000000E+00
      0.00000000000000E+00   0.00000000000000E+00   2.21687839837178E-07  -9.33898171988513E-14   2.21687746447361E-07
     -9.07894091996093E-17  -7.50000000000000E-01  -7.50000000000000E-01   0.00000000000000E+00   0.00000000000000E+00
     -2.21687786473214E-07   5.51586675571294E-10  -2.21136199797643E-07  -3.58854612704611E-16
      7.16666666666667E-01
     -7.16666666666667E-02  -7.16666666666667E-02   0.00000000000000E+00   0.00000000000000E+00   0.00000000000000E+00
      0.00000000000000E+00   0.00000000000000E+00   4.46360023852882E-16   0.00000000000000E+00   0.00000000000000E+00
      0.00000000000000E+00   0.00000000000000E+00   2.34633191127121E-07  -7.09072227994870E-14   2.34633120219898E-07
     -9.01625717589170E-17  -7.50000000000000E-01  -7.50000000000000E-01   0.00000000000000E+00   0.00000000000000E+00
     -2.34633140717237E-07   7.22303701997043E-10  -2.33910837015239E-07  -3.58285180582161E-16
      7.33333333333334E-01
     -7.33333333333334E-02  -7.33333333333334E-02   0.00000000000000E+00   0.00000000000000E+00   0.00000000000000E+00
      0.00000000000000E+00   0.00000000000000E+00   4.45145893635908E-16   0.00000000000000E+00   0.00000000000000E+00
      0.00000000000000E+00   0.00000000000000E+00   2.48327161927382E-07  -6.92521758002022E-14   2.48327092675207E-07
     -8.95356050082981E-17  -7.50000000000000E-01  -7.50000000000000E-01   0.00000000000000E+00   0.00000000000000E+00
     -2.48327117959739E-07   9.21554493962296E-10  -2.47405563465776E-07  -3.57715663877152E-16
      7.50000000000001E-01
     -7.50000000000001E-02  -7.50000000000001E-02   0.00000000000000E+00   0.00000000000000E+00   0.00000000000000E+00
      0.00000000000000E+00   0.00000000000000E+00   4.43931129339205E-16   0.00000000000000E+00   0.00000000000000E+00
      0.00000000000000E+00   0.00000000000000E+00   2.62812654023248E-07   1.13778329327954E-14   2.62812665401081E-07
     -8.89085110154004E-17  -7.50000000000000E-01  -7.50000000000000E-01   0.00000000000000E+00   0.00000000000000E+00
     -2.62812665053471E-07   5.07254228404950E-10  -2.62305410825066E-07  -3.57146058449492E-16
      7.66666666666667E-01
     -7.66666666666667E-02  -7.66666666666667E-02   0.00000000000000E+00   0.00000000000000E+00   0.00000000000000E+00
      0.00000000000000E+00   0.00000000000000E+00   4.42715723052849E-16   0.00000000000000E+00   0.00000000000000E+00
      0.00000000000000E+00   0.00000000000000E+00   2.78135435719227E-07   1.26947976708925E-14   2.78135448414024E-07
     -8.82812919104714E-17  -7.50000000000000E-01  -7.50000000000000E-01   0.00000000000000E+00   0.00000000000000E+00
     -2.78135448175303E-07   4.30804445633786E-10  -2.77704643729669E-07  -3.56576368824415E-16
      7.83333333333334E-01
     -7.83333333333334E-02  -7.83333333333334E-02   0.00000000000000E+00   0.00000000000000E+00   0.00000000000000E+00
      0.00000000000000E+00   0.00000000000000E+00   4.41499665084707E-16   0.00000000000000E+00   0.00000000000000E+00
      0.00000000000000E+00   0.00000000000000E+00   2.94342543843798E-07  -1.00167279516680E-14   2.94342533827070E-07
     -8.76539499092113E-17  -7.50000000000000E-01  -7.50000000000000E-01   0.00000000000000E+00   0.00000000000000E+00
     -2.94342516825673E-07   1.18968458745308E-09  -2.93152832238220E-07  -3.56006597445106E-16
      8.00000000000001E-01
     -8.00000000000001E-02  -8.00000000000001E-02   0.00000000000000E+00   0.00000000000000E+00   0.00000000000000E+00
      0.00000000000000E+00   0.00000000000000E+00   4.40282936874076E-16   0.00000000000000E+00   0.00000000000000E+00