DF-ISE text

Info {
  version   = 1.0
  type      = xyplot
  datasets  = [
    "time"
    "gate OuterVoltage" "gate InnerVoltage" "gate QuasiFermiPotential" "gate DisplacementCurrent" "gate eCurrent"
    "gate hCurrent" "gate TotalCurrent" "gate Charge" "source OuterVoltage" "source InnerVoltage"
    "source QuasiFermiPotential" "source DisplacementCurrent" "source eCurrent" "source hCurrent" "source TotalCurrent"
    "source Charge" "drain OuterVoltage" "drain InnerVoltage" "drain QuasiFermiPotential" "drain DisplacementCurrent"
    "drain eCurrent" "drain hCurrent" "drain TotalCurrent" "drain Charge" ]
  functions = [
    Time
    OuterVoltage InnerVoltage QuasiFermiPotential DisplacementCurrent eCurrent
    hCurrent TotalCurrent Charge OuterVoltage InnerVoltage
    QuasiFermiPotential DisplacementCurrent eCurrent hCurrent TotalCurrent
    Charge OuterVoltage InnerVoltage QuasiFermiPotential DisplacementCurrent
    eCurrent hCurrent TotalCurrent Charge ]
}

Data {
      0.00000000000000E+00
      0.00000000000000E+00   0.00000000000000E+00   0.00000000000000E+00   0.00000000000000E+00   0.00000000000000E+00
      0.00000000000000E+00   0.00000000000000E+00   5.15016640940953E-16   0.00000000000000E+00   0.00000000000000E+00
      0.00000000000000E+00   0.00000000000000E+00   2.07816288422054E-08  -1.15559866361214E-15   2.07816276866067E-08
     -1.16967215535425E-16  -8.00000000000000E-01  -8.00000000000000E-01   0.00000000000000E+00   0.00000000000000E+00
     -2.07816276140338E-08   6.55785206849939E-13  -2.07809718288270E-08  -3.99648646785650E-16
      1.66666666666667E-02
     -1.66666666666667E-03  -1.66666666666667E-03   0.00000000000000E+00   0.00000000000000E+00   0.00000000000000E+00
      0.00000000000000E+00   0.00000000000000E+00   5.13825614584153E-16   0.00000000000000E+00   0.00000000000000E+00
      0.00000000000000E+00   0.00000000000000E+00   2.20114455587126E-08  -7.28394192547559E-16   2.20114448303184E-08
     -1.16346915226945E-16  -8.00000000000000E-01  -8.00000000000000E-01   0.00000000000000E+00   0.00000000000000E+00
     -2.20114455169248E-08   8.22939816597411E-14  -2.20113632229432E-08  -3.99085194677545E-16
      3.33333333333333E-02
     -3.33333333333333E-03  -3.33333333333333E-03   0.00000000000000E+00   0.00000000000000E+00   0.00000000000000E+00
      0.00000000000000E+00   0.00000000000000E+00   5.12634202736146E-16   0.00000000000000E+00   0.00000000000000E+00
      0.00000000000000E+00   0.00000000000000E+00   2.33139076527383E-08   9.13946532380466E-16   2.33139085666848E-08
     -1.15726445208769E-16  -8.00000000000000E-01  -8.00000000000000E-01   0.00000000000000E+00   0.00000000000000E+00
     -2.33139106189345E-08   2.39854869501495E-12  -2.33115120702395E-08  -3.98521662585618E-16
      5.00000000000000E-02
     -5.00000000000000E-03  -5.00000000000000E-03   0.00000000000000E+00   0.00000000000000E+00   0.00000000000000E+00
      0.00000000000000E+00   0.00000000000000E+00   5.11442402872547E-16   0.00000000000000E+00   0.00000000000000E+00
      0.00000000000000E+00   0.00000000000000E+00   2.46925846571374E-08   5.16234319077589E-15   2.46925898194806E-08
     -1.15105805772179E-16  -8.00000000000000E-01  -8.00000000000000E-01   0.00000000000000E+00   0.00000000000000E+00
     -2.46925905612282E-08   1.72091453423257E-12  -2.46908696466940E-08  -3.97958050806305E-16
      6.66666666666667E-02
     -6.66666666666667E-03  -6.66666666666667E-03   0.00000000000000E+00   0.00000000000000E+00   0.00000000000000E+00
      0.00000000000000E+00   0.00000000000000E+00   5.10250213716986E-16   0.00000000000000E+00   0.00000000000000E+00
      0.00000000000000E+00   0.00000000000000E+00   2.61523645650165E-08  -1.09847488298396E-13   2.61522547175282E-08
     -1.14484997238705E-16  -8.00000000000000E-01  -8.00000000000000E-01   0.00000000000000E+00   0.00000000000000E+00
     -2.61523841963047E-08  -5.29327901923934E-13  -2.61529135242066E-08  -3.97394361388267E-16
      8.33333333333333E-02
     -8.33333333333333E-03  -8.33333333333333E-03   0.00000000000000E+00   0.00000000000000E+00   0.00000000000000E+00
      0.00000000000000E+00   0.00000000000000E+00   5.09057625831267E-16   0.00000000000000E+00   0.00000000000000E+00
      0.00000000000000E+00   0.00000000000000E+00   2.76983731855749E-08   1.57900091260845E-15   2.76983747645758E-08
     -1.13864019944392E-16  -8.00000000000000E-01  -8.00000000000000E-01   0.00000000000000E+00   0.00000000000000E+00
     -2.76983744448978E-08  -3.58680336048757E-12  -2.77019612482583E-08  -3.96830587612192E-16
      1.00000000000000E-01
     -1.00000000000000E-02  -1.00000000000000E-02   0.00000000000000E+00   0.00000000000000E+00   0.00000000000000E+00
      0.00000000000000E+00   0.00000000000000E+00   5.07864643553288E-16   0.00000000000000E+00   0.00000000000000E+00
      0.00000000000000E+00   0.00000000000000E+00   2.93354950015968E-08  -1.23869256896589E-13   2.93353711323399E-08
     -1.13242874230568E-16  -8.00000000000000E-01  -8.00000000000000E-01   0.00000000000000E+00   0.00000000000000E+00
     -2.93354869798657E-08  -3.90771455447486E-12  -2.93393946944202E-08  -3.96266737302825E-16
      1.16666666666667E-01
     -1.16666666666667E-02  -1.16666666666667E-02   0.00000000000000E+00   0.00000000000000E+00   0.00000000000000E+00
      0.00000000000000E+00   0.00000000000000E+00   5.06671256203518E-16   0.00000000000000E+00   0.00000000000000E+00
      0.00000000000000E+00   0.00000000000000E+00   3.10691598007143E-08  -1.58413321379672E-14   3.10691439593822E-08
     -1.12621560493071E-16  -8.00000000000000E-01  -8.00000000000000E-01   0.00000000000000E+00   0.00000000000000E+00
     -3.10691439549569E-08  -2.47545721861649E-12  -3.10716194121755E-08  -3.95702802857162E-16
      1.33333333333333E-01
     -1.33333333333333E-02  -1.33333333333333E-02   0.00000000000000E+00   0.00000000000000E+00   0.00000000000000E+00
      0.00000000000000E+00   0.00000000000000E+00   5.05477467760394E-16   0.00000000000000E+00   0.00000000000000E+00
      0.00000000000000E+00   0.00000000000000E+00   3.29046499717532E-08  -1.30258802083786E-13   3.29045197129511E-08
     -1.12000079114198E-16  -8.00000000000000E-01  -8.00000000000000E-01   0.00000000000000E+00   0.00000000000000E+00
     -3.29046379420291E-08  -2.39967102627615E-13  -3.29048779091317E-08  -3.95138791746724E-16
      1.50000000000000E-01
     -1.50000000000000E-02  -1.50000000000000E-02   0.00000000000000E+00   0.00000000000000E+00   0.00000000000000E+00
      0.00000000000000E+00   0.00000000000000E+00   5.04283269787314E-16   0.00000000000000E+00   0.00000000000000E+00
      0.00000000000000E+00   0.00000000000000E+00   3.48479378200436E-08  -1.06765997045136E-13   3.48478310540465E-08
     -1.11378430532432E-16  -8.00000000000000E-01  -8.00000000000000E-01   0.00000000000000E+00   0.00000000000000E+00
     -3.48479490119834E-08  -2.68555221878256E-12  -3.48506345642022E-08  -3.94574698841657E-16
      1.66666666666667E-01
     -1.66666666666667E-02  -1.66666666666667E-02   0.00000000000000E+00   0.00000000000000E+00   0.00000000000000E+00
      0.00000000000000E+00   0.00000000000000E+00   5.03088657912429E-16   0.00000000000000E+00   0.00000000000000E+00
      0.00000000000000E+00   0.00000000000000E+00   3.69053101113441E-08   1.16852851667913E-14   3.69053217966293E-08
     -1.10756615200886E-16  -8.00000000000000E-01  -8.00000000000000E-01   0.00000000000000E+00   0.00000000000000E+00
     -3.69053222665228E-08  -7.01867275312084E-12  -3.69123409392759E-08  -3.94010523140758E-16
      1.83333333333333E-01
     -1.83333333333333E-02  -1.83333333333333E-02   0.00000000000000E+00   0.00000000000000E+00   0.00000000000000E+00
      0.00000000000000E+00   0.00000000000000E+00   5.01893631336634E-16   0.00000000000000E+00   0.00000000000000E+00
      0.00000000000000E+00   0.00000000000000E+00   3.90841668552664E-08   1.21452156658510E-15   3.90841680697880E-08
     -1.10134633588754E-16  -8.00000000000000E-01  -8.00000000000000E-01   0.00000000000000E+00   0.00000000000000E+00
     -3.90841688500218E-08  -7.88867867330496E-12  -3.90920575286951E-08  -3.93446267506231E-16
      2.00000000000000E-01
     -2.00000000000000E-02  -2.00000000000000E-02   0.00000000000000E+00   0.00000000000000E+00   0.00000000000000E+00
      0.00000000000000E+00   0.00000000000000E+00   5.00698185312082E-16   0.00000000000000E+00   0.00000000000000E+00
      0.00000000000000E+00   0.00000000000000E+00   4.13912967191024E-08  -1.18098866042233E-14   4.13912849092157E-08
     -1.09512486204426E-16  -8.00000000000000E-01  -8.00000000000000E-01   0.00000000000000E+00   0.00000000000000E+00
     -4.13912854237842E-08  -2.54028603787091E-12  -4.13938257098221E-08  -3.92881931034035E-16
      2.16666666666667E-01
     -2.16666666666667E-02  -2.16666666666667E-02   0.00000000000000E+00   0.00000000000000E+00   0.00000000000000E+00
      0.00000000000000E+00   0.00000000000000E+00   4.99502316711552E-16   0.00000000000000E+00   0.00000000000000E+00
      0.00000000000000E+00   0.00000000000000E+00   4.38336719339373E-08   9.44563753740653E-16   4.38336728785011E-08
     -1.08890173568746E-16  -8.00000000000000E-01  -8.00000000000000E-01   0.00000000000000E+00   0.00000000000000E+00
     -4.38336734549523E-08   1.16333062798090E-12  -4.38325101243243E-08  -3.92317514179221E-16
      2.33333333333333E-01
     -2.33333333333333E-02  -2.33333333333333E-02   0.00000000000000E+00   0.00000000000000E+00   0.00000000000000E+00
      0.00000000000000E+00   0.00000000000000E+00   4.98306021680701E-16   0.00000000000000E+00   0.00000000000000E+00
      0.00000000000000E+00   0.00000000000000E+00   4.64192380328967E-08   2.19335103465710E-14   4.64192599664070E-08
     -1.08267696243875E-16  -8.00000000000000E-01  -8.00000000000000E-01   0.00000000000000E+00   0.00000000000000E+00
     -4.64192616721814E-08  -5.05076218729717E-13  -4.64197667484002E-08  -3.91753016827350E-16
      2.50000000000000E-01
     -2.50000000000000E-02  -2.50000000000000E-02   0.00000000000000E+00   0.00000000000000E+00   0.00000000000000E+00
      0.00000000000000E+00   0.00000000000000E+00   4.97109297784185E-16   0.00000000000000E+00   0.00000000000000E+00
      0.00000000000000E+00   0.00000000000000E+00   4.91565839094693E-08  -1.35517226113451E-13   4.91564483922432E-08
     -1.07645054809394E-16  -8.00000000000000E-01  -8.00000000000000E-01   0.00000000000000E+00   0.00000000000000E+00
     -4.91565723338628E-08  -6.61517063477891E-13  -4.91572338509263E-08  -3.91188440415573E-16
      2.66666666666667E-01
     -2.66666666666667E-02  -2.66666666666667E-02   0.00000000000000E+00   0.00000000000000E+00   0.00000000000000E+00
      0.00000000000000E+00   0.00000000000000E+00   4.95912137541046E-16   0.00000000000000E+00   0.00000000000000E+00
      0.00000000000000E+00   0.00000000000000E+00   5.20544528869499E-08  -1.04855234619425E-13   5.20543480317153E-08
     -1.07022249892220E-16  -8.00000000000000E-01  -8.00000000000000E-01   0.00000000000000E+00   0.00000000000000E+00
     -5.20544710565245E-08   6.20081339443914E-13  -5.20538509751851E-08  -3.90623781474545E-16
      2.83333333333333E-01
     -2.83333333333333E-02  -2.83333333333333E-02   0.00000000000000E+00   0.00000000000000E+00   0.00000000000000E+00
      0.00000000000000E+00   0.00000000000000E+00   4.94714538410441E-16   0.00000000000000E+00   0.00000000000000E+00
      0.00000000000000E+00   0.00000000000000E+00   5.51223057821849E-08  -1.29544883468309E-13   5.51221762373014E-08
     -1.06399282133573E-16  -8.00000000000000E-01  -8.00000000000000E-01   0.00000000000000E+00   0.00000000000000E+00
     -5.51223008542009E-08   5.12884508321235E-12  -5.51171720091177E-08  -3.90059041575745E-16
      3.00000000000000E-01
     -3.00000000000000E-02  -3.00000000000000E-02   0.00000000000000E+00   0.00000000000000E+00   0.00000000000000E+00
      0.00000000000000E+00   0.00000000000000E+00   4.93516494750619E-16   0.00000000000000E+00   0.00000000000000E+00
      0.00000000000000E+00   0.00000000000000E+00   5.83698115883976E-08   1.16822943761904E-15   5.83698127566270E-08
     -1.05776152218118E-16  -8.00000000000000E-01  -8.00000000000000E-01   0.00000000000000E+00   0.00000000000000E+00
     -5.83698130844732E-08   7.68260941615614E-12  -5.83621304750570E-08  -3.89494219370377E-16
      3.16666666666667E-01
     -3.16666666666667E-02  -3.16666666666667E-02   0.00000000000000E+00   0.00000000000000E+00   0.00000000000000E+00
      0.00000000000000E+00   0.00000000000000E+00   4.92318005995496E-16   0.00000000000000E+00   0.00000000000000E+00
      0.00000000000000E+00   0.00000000000000E+00   6.18072228038835E-08   4.06229466788268E-15   6.18072268661782E-08
     -1.05152860852264E-16  -8.00000000000000E-01  -8.00000000000000E-01   0.00000000000000E+00   0.00000000000000E+00
     -6.18072260801450E-08   1.04469828874904E-11  -6.17967790972575E-08  -3.88929318736652E-16
      3.33333333333333E-01
     -3.33333333333333E-02  -3.33333333333333E-02   0.00000000000000E+00   0.00000000000000E+00   0.00000000000000E+00
      0.00000000000000E+00   0.00000000000000E+00   4.91119065618957E-16   0.00000000000000E+00   0.00000000000000E+00
      0.00000000000000E+00   0.00000000000000E+00   6.54456294666361E-08   2.27416078913308E-14   6.54456522082439E-08
     -1.04529408793768E-16  -8.00000000000000E-01  -8.00000000000000E-01   0.00000000000000E+00   0.00000000000000E+00
     -6.54456529805608E-08   6.55215127700607E-12  -6.54391008292838E-08  -3.88364337608795E-16
      3.50000000000000E-01
     -3.50000000000000E-02  -3.50000000000000E-02   0.00000000000000E+00   0.00000000000000E+00   0.00000000000000E+00
      0.00000000000000E+00   0.00000000000000E+00   4.89919670146127E-16   0.00000000000000E+00   0.00000000000000E+00
      0.00000000000000E+00   0.00000000000000E+00   6.92969381359240E-08  -1.04243866496853E-13   6.92968338920575E-08
     -1.03905796815742E-16  -8.00000000000000E-01  -8.00000000000000E-01   0.00000000000000E+00   0.00000000000000E+00
     -6.92969572556323E-08   1.74776785201866E-11  -6.92794795771121E-08  -3.87799277215820E-16
      3.66666666666667E-01
     -3.66666666666667E-02  -3.66666666666667E-02   0.00000000000000E+00   0.00000000000000E+00   0.00000000000000E+00
      0.00000000000000E+00   0.00000000000000E+00   4.88719811448445E-16   0.00000000000000E+00   0.00000000000000E+00
      0.00000000000000E+00   0.00000000000000E+00   7.33735750663024E-08  -1.04378707623438E-13   7.33734706875948E-08
     -1.03282025742695E-16  -8.00000000000000E-01  -8.00000000000000E-01   0.00000000000000E+00   0.00000000000000E+00
     -7.33735936947327E-08   2.12880630326091E-11  -7.33523056317001E-08  -3.87234134147482E-16
      3.83333333333333E-01
     -3.83333333333333E-02  -3.83333333333333E-02   0.00000000000000E+00   0.00000000000000E+00   0.00000000000000E+00
      0.00000000000000E+00   0.00000000000000E+00   4.87519485848249E-16   0.00000000000000E+00   0.00000000000000E+00
      0.00000000000000E+00   0.00000000000000E+00   7.76886102423997E-08  -1.19317065501899E-13   7.76884909253342E-08
     -1.02658096428144E-16  -8.00000000000000E-01  -8.00000000000000E-01   0.00000000000000E+00   0.00000000000000E+00
     -7.76886138362862E-08   2.96250890876924E-11  -7.76589887471985E-08  -3.86668909726095E-16
      4.00000000000000E-01
     -4.00000000000000E-02  -4.00000000000000E-02   0.00000000000000E+00   0.00000000000000E+00   0.00000000000000E+00
      0.00000000000000E+00   0.00000000000000E+00   4.86318688773479E-16   0.00000000000000E+00   0.00000000000000E+00
      0.00000000000000E+00   0.00000000000000E+00   8.22557111996052E-08  -1.00815696451410E-13   8.22556103839088E-08
     -1.02034009769218E-16  -8.00000000000000E-01  -8.00000000000000E-01   0.00000000000000E+00   0.00000000000000E+00
     -8.22557323542710E-08   4.55516819676937E-11  -8.22101806723033E-08  -3.86103604523021E-16
      4.16666666666667E-01
     -4.16666666666667E-02  -4.16666666666667E-02   0.00000000000000E+00   0.00000000000000E+00   0.00000000000000E+00
      0.00000000000000E+00   0.00000000000000E+00   4.85117415004572E-16   0.00000000000000E+00   0.00000000000000E+00
      0.00000000000000E+00   0.00000000000000E+00   8.70894169480209E-08  -1.12610775077464E-13   8.70893043372458E-08
     -1.01409766705495E-16  -8.00000000000000E-01  -8.00000000000000E-01   0.00000000000000E+00   0.00000000000000E+00
     -8.70894257562066E-08   6.60031680780611E-11  -8.70234225881285E-08  -3.85538218564104E-16
      4.33333333333333E-01
     -4.33333333333333E-02  -4.33333333333333E-02   0.00000000000000E+00   0.00000000000000E+00   0.00000000000000E+00
      0.00000000000000E+00   0.00000000000000E+00   4.83915657878272E-16   0.00000000000000E+00   0.00000000000000E+00
      0.00000000000000E+00   0.00000000000000E+00   9.22048759714756E-08  -3.31303538605111E-15   9.22048726584402E-08
     -1.00785368211488E-16  -8.00000000000000E-01  -8.00000000000000E-01   0.00000000000000E+00   0.00000000000000E+00
     -9.22048724433766E-08   2.57983054667996E-11  -9.21790741379098E-08  -3.84972750532310E-16
      4.50000000000000E-01
     -4.50000000000000E-02  -4.50000000000000E-02   0.00000000000000E+00   0.00000000000000E+00   0.00000000000000E+00
      0.00000000000000E+00   0.00000000000000E+00   4.82713415872711E-16   0.00000000000000E+00   0.00000000000000E+00
      0.00000000000000E+00   0.00000000000000E+00   9.76185914426418E-08  -1.03979186109242E-13   9.76184874634557E-08
     -1.00160815301102E-16  -8.00000000000000E-01  -8.00000000000000E-01   0.00000000000000E+00   0.00000000000000E+00
     -9.76186059001061E-08   7.64066873571793E-11  -9.75421992127489E-08  -3.84407204831287E-16
      4.66666666666667E-01
     -4.66666666666667E-02  -4.66666666666667E-02   0.00000000000000E+00   0.00000000000000E+00   0.00000000000000E+00
      0.00000000000000E+00   0.00000000000000E+00   4.81510678444512E-16   0.00000000000000E+00   0.00000000000000E+00
      0.00000000000000E+00   0.00000000000000E+00   1.03348086703692E-07  -1.11273875986720E-13   1.03347975429816E-07
     -9.95361090452497E-17  -8.00000000000000E-01  -8.00000000000000E-01   0.00000000000000E+00   0.00000000000000E+00
     -1.03348092480310E-07   1.09169939675713E-10  -1.03238922540634E-07  -3.83841576404855E-16
      4.83333333333333E-01
     -4.83333333333333E-02  -4.83333333333333E-02   0.00000000000000E+00   0.00000000000000E+00   0.00000000000000E+00
      0.00000000000000E+00   0.00000000000000E+00   4.80307440617856E-16   0.00000000000000E+00   0.00000000000000E+00
      0.00000000000000E+00   0.00000000000000E+00   1.09411622819767E-07  -1.14279577299996E-13   1.09411508540189E-07
     -9.89112505498023E-17  -8.00000000000000E-01  -8.00000000000000E-01   0.00000000000000E+00   0.00000000000000E+00
     -1.09411623028512E-07   1.38252199851007E-10  -1.09273370828661E-07  -3.83275866308094E-16
      5.00000000000000E-01
     -5.00000000000000E-02  -5.00000000000000E-02   0.00000000000000E+00   0.00000000000000E+00   0.00000000000000E+00
      0.00000000000000E+00   0.00000000000000E+00   4.79103696394662E-16   0.00000000000000E+00   0.00000000000000E+00
      0.00000000000000E+00   0.00000000000000E+00   1.15828398510030E-07  -9.21027247924566E-14   1.15828306407305E-07
     -9.82862409708204E-17  -8.00000000000000E-01  -8.00000000000000E-01   0.00000000000000E+00   0.00000000000000E+00
     -1.15828418396444E-07   1.86092962261949E-10  -1.15642325434182E-07  -3.82710074811398E-16
      5.16666666666667E-01
     -5.16666666666667E-02  -5.16666666666667E-02   0.00000000000000E+00   0.00000000000000E+00   0.00000000000000E+00
      0.00000000000000E+00   0.00000000000000E+00   4.77899439366591E-16   0.00000000000000E+00   0.00000000000000E+00
      0.00000000000000E+00   0.00000000000000E+00   1.22618705069215E-07  -9.17132109739928E-14   1.22618613356004E-07
     -9.76610815126185E-17  -8.00000000000000E-01  -8.00000000000000E-01   0.00000000000000E+00   0.00000000000000E+00
     -1.22618722426694E-07   2.60967954105330E-10  -1.22357754472589E-07  -3.82144201955383E-16
      5.33333333333333E-01
     -5.33333333333333E-02  -5.33333333333333E-02   0.00000000000000E+00   0.00000000000000E+00   0.00000000000000E+00
      0.00000000000000E+00   0.00000000000000E+00   4.76694663257465E-16   0.00000000000000E+00   0.00000000000000E+00
      0.00000000000000E+00   0.00000000000000E+00   1.29803912046862E-07  -9.82125317353250E-14   1.29803813834331E-07
     -9.70357734338470E-17  -8.00000000000000E-01  -8.00000000000000E-01   0.00000000000000E+00   0.00000000000000E+00
     -1.29803919732016E-07   3.63647779086595E-10  -1.29440271952930E-07  -3.81578248110591E-16
      5.50000000000000E-01
     -5.50000000000000E-02  -5.50000000000000E-02   0.00000000000000E+00   0.00000000000000E+00   0.00000000000000E+00
      0.00000000000000E+00   0.00000000000000E+00   4.75489361012108E-16   0.00000000000000E+00   0.00000000000000E+00
      0.00000000000000E+00   0.00000000000000E+00   1.37406692803008E-07  -1.04122748194603E-13   1.37406588680260E-07
     -9.64103180379976E-17  -8.00000000000000E-01  -8.00000000000000E-01   0.00000000000000E+00   0.00000000000000E+00
     -1.37406688500172E-07   4.94107362779964E-10  -1.36912581137392E-07  -3.81012213113702E-16
      5.66666666666667E-01
     -5.66666666666667E-02  -5.66666666666667E-02   0.00000000000000E+00   0.00000000000000E+00   0.00000000000000E+00
      0.00000000000000E+00   0.00000000000000E+00   4.74283525214442E-16   0.00000000000000E+00   0.00000000000000E+00
      0.00000000000000E+00   0.00000000000000E+00   1.45451118123757E-07  -1.07016147468758E-13   1.45451011107609E-07
     -9.57847166867250E-17  -8.00000000000000E-01  -8.00000000000000E-01   0.00000000000000E+00   0.00000000000000E+00
     -1.45451109225141E-07   6.55452355231396E-10  -1.44795656869909E-07  -3.80446096692932E-16
      5.83333333333333E-01
     -5.83333333333333E-02  -5.83333333333333E-02   0.00000000000000E+00   0.00000000000000E+00   0.00000000000000E+00
      0.00000000000000E+00   0.00000000000000E+00   4.73077147965394E-16   0.00000000000000E+00   0.00000000000000E+00
      0.00000000000000E+00   0.00000000000000E+00   1.53962833408192E-07  -9.12592893999532E-14   1.53962742148903E-07
     -9.51589707975572E-17  -8.00000000000000E-01  -8.00000000000000E-01   0.00000000000000E+00   0.00000000000000E+00
     -1.53962836131136E-07   8.45072679596648E-10  -1.53117763451540E-07  -3.79879898343427E-16
      6.00000000000000E-01
     -6.00000000000000E-02  -6.00000000000000E-02   0.00000000000000E+00   0.00000000000000E+00   0.00000000000000E+00
      0.00000000000000E+00   0.00000000000000E+00   4.71870220860434E-16   0.00000000000000E+00   0.00000000000000E+00
      0.00000000000000E+00   0.00000000000000E+00   1.62968709242105E-07  -9.92430166517916E-14   1.62968609999088E-07
     -9.45330818404109E-17  -8.00000000000000E-01  -8.00000000000000E-01   0.00000000000000E+00   0.00000000000000E+00
     -1.62968698720377E-07   1.08829517461811E-09  -1.61880403545759E-07  -3.79313617415324E-16
      6.16666666666667E-01
     -6.16666666666667E-02  -6.16666666666667E-02   0.00000000000000E+00   0.00000000000000E+00   0.00000000000000E+00
      0.00000000000000E+00   0.00000000000000E+00   4.70662733328294E-16   0.00000000000000E+00   0.00000000000000E+00
      0.00000000000000E+00   0.00000000000000E+00   1.72497259995740E-07  -4.67344859846044E-15   1.72497255322292E-07
     -9.39070513566090E-17  -8.00000000000000E-01  -8.00000000000000E-01   0.00000000000000E+00   0.00000000000000E+00
     -1.72497253954184E-07   7.78661592507591E-10  -1.71718592361676E-07  -3.78747250576628E-16
      6.33333333333334E-01
     -6.33333333333334E-02  -6.33333333333334E-02   0.00000000000000E+00   0.00000000000000E+00   0.00000000000000E+00
      0.00000000000000E+00   0.00000000000000E+00   4.69454680016120E-16   0.00000000000000E+00   0.00000000000000E+00
      0.00000000000000E+00   0.00000000000000E+00   1.82578600914760E-07  -4.59322489828601E-15   1.82578596321535E-07
     -9.32808809312102E-17  -8.00000000000000E-01  -8.00000000000000E-01   0.00000000000000E+00   0.00000000000000E+00
     -1.82578595517975E-07   5.69106585799280E-10  -1.82009488932176E-07  -3.78180801530452E-16
      6.50000000000000E-01
     -6.50000000000000E-02  -6.50000000000000E-02   0.00000000000000E+00   0.00000000000000E+00   0.00000000000000E+00
      0.00000000000000E+00   0.00000000000000E+00   4.68246051810123E-16   0.00000000000000E+00   0.00000000000000E+00
      0.00000000000000E+00   0.00000000000000E+00   1.93244044400329E-07   1.27889227315868E-14   1.93244057189252E-07
     -9.26545722162482E-17  -8.00000000000000E-01  -8.00000000000000E-01   0.00000000000000E+00   0.00000000000000E+00
     -1.93244058992558E-07   5.33559771750736E-10  -1.92710499220807E-07  -3.77614269797411E-16
      6.66666666666667E-01
     -6.66666666666667E-02  -6.66666666666667E-02   0.00000000000000E+00   0.00000000000000E+00   0.00000000000000E+00
      0.00000000000000E+00   0.00000000000000E+00   4.67036841003969E-16   0.00000000000000E+00   0.00000000000000E+00
      0.00000000000000E+00   0.00000000000000E+00   2.04526726833767E-07   1.27817754506495E-14   2.04526739615542E-07
     -9.20281269287655E-17  -8.00000000000000E-01  -8.00000000000000E-01   0.00000000000000E+00   0.00000000000000E+00
     -2.04526746436312E-07   5.35918015893582E-10  -2.03990828420419E-07  -3.77047656197903E-16
      6.83333333333334E-01
     -6.83333333333334E-02  -6.83333333333334E-02   0.00000000000000E+00   0.00000000000000E+00   0.00000000000000E+00
      0.00000000000000E+00   0.00000000000000E+00   4.65827040880634E-16   0.00000000000000E+00   0.00000000000000E+00
      0.00000000000000E+00   0.00000000000000E+00   2.16462059025134E-07  -8.65786729022010E-14   2.16461972446461E-07
     -9.14015468436772E-17  -8.00000000000000E-01  -8.00000000000000E-01   0.00000000000000E+00   0.00000000000000E+00
     -2.16462027033881E-07   6.03746823251173E-10  -2.15858280210630E-07  -3.76480962773138E-16
      7.00000000000001E-01
     -7.00000000000000E-02  -7.00000000000000E-02   0.00000000000000E+00   0.00000000000000E+00   0.00000000000000E+00
      0.00000000000000E+00   0.00000000000000E+00   4.64616638877080E-16   0.00000000000000E+00   0.00000000000000E+00
      0.00000000000000E+00   0.00000000000000E+00   2.29087071779212E-07  -3.91028594818707E-14   2.29087032676353E-07
     -9.07748338243422E-17  -8.00000000000000E-01  -8.00000000000000E-01   0.00000000000000E+00   0.00000000000000E+00
     -2.29087072605016E-07   5.37222209173171E-10  -2.28549850395843E-07  -3.75914185970369E-16
      7.16666666666667E-01
     -7.16666666666667E-02  -7.16666666666667E-02   0.00000000000000E+00   0.00000000000000E+00   0.00000000000000E+00
      0.00000000000000E+00   0.00000000000000E+00   4.63405627276950E-16   0.00000000000000E+00   0.00000000000000E+00
      0.00000000000000E+00   0.00000000000000E+00   2.42441232091592E-07  -3.50065970161012E-14   2.42441197084995E-07
     -9.01479897958151E-17  -8.00000000000000E-01  -8.00000000000000E-01   0.00000000000000E+00   0.00000000000000E+00
     -2.42441214581373E-07   2.41690470916082E-10  -2.42199524110457E-07  -3.75347327432015E-16
      7.33333333333334E-01
     -7.33333333333334E-02  -7.33333333333334E-02   0.00000000000000E+00   0.00000000000000E+00   0.00000000000000E+00
      0.00000000000000E+00   0.00000000000000E+00   4.62193996433613E-16   0.00000000000000E+00   0.00000000000000E+00
      0.00000000000000E+00   0.00000000000000E+00   2.56566120567717E-07  -5.16696060792702E-14   2.56566068898111E-07
     -8.95210167447464E-17  -8.00000000000000E-01  -8.00000000000000E-01   0.00000000000000E+00   0.00000000000000E+00
     -2.56566093113679E-07  -2.47507669152461E-10  -2.56813600782831E-07  -3.74780387504980E-16
      7.50000000000001E-01
     -7.50000000000001E-02  -7.50000000000001E-02   0.00000000000000E+00   0.00000000000000E+00   0.00000000000000E+00
      0.00000000000000E+00   0.00000000000000E+00   4.60981736419684E-16   0.00000000000000E+00   0.00000000000000E+00
      0.00000000000000E+00   0.00000000000000E+00   2.71505497745775E-07  -1.67072310211215E-14   2.71505481038544E-07
     -8.88939167425037E-17  -8.00000000000000E-01  -8.00000000000000E-01   0.00000000000000E+00   0.00000000000000E+00
     -2.71505489926317E-07  -7.73469309148062E-10  -2.72278959235465E-07  -3.74213366674987E-16
      7.66666666666667E-01
     -7.66666666666667E-02  -7.66666666666667E-02   0.00000000000000E+00   0.00000000000000E+00   0.00000000000000E+00
      0.00000000000000E+00   0.00000000000000E+00   4.59768837266464E-16   0.00000000000000E+00   0.00000000000000E+00
      0.00000000000000E+00   0.00000000000000E+00   2.87305569717140E-07  -5.09079743982340E-14   2.87305518809166E-07
     -8.82666919369270E-17  -8.00000000000000E-01  -8.00000000000000E-01   0.00000000000000E+00   0.00000000000000E+00
     -2.87305518328901E-07  -1.12856675039705E-09  -2.88434085079298E-07  -3.73646265951590E-16
      7.83333333333334E-01
     -7.83333333333334E-02  -7.83333333333334E-02   0.00000000000000E+00   0.00000000000000E+00   0.00000000000000E+00
      0.00000000000000E+00   0.00000000000000E+00   4.58555288482561E-16   0.00000000000000E+00   0.00000000000000E+00
      0.00000000000000E+00   0.00000000000000E+00   3.04014435442956E-07   1.03848295456677E-15   3.04014436481439E-07
     -8.76393445587612E-17  -8.00000000000000E-01  -8.00000000000000E-01   0.00000000000000E+00   0.00000000000000E+00
     -3.04014436219388E-07  -6.73854306702239E-10  -3.04688290526090E-07  -3.73079086781449E-16
      8.00000000000001E-01
     -8.00000000000001E-02  -8.00000000000001E-02   0.00000000000000E+00   0.00000000000000E+00   0.00000000000000E+00
      0.00000000000000E+00   0.00000000000000E+00   4.57341081894947E-16   0.00000000000000E+00   0.00000000000000E+00