DF-ISE text

Info {
  version   = 1.0
  type      = xyplot
  datasets  = [
    "time"
    "gate OuterVoltage" "gate InnerVoltage" "gate QuasiFermiPotential" "gate DisplacementCurrent" "gate eCurrent"
    "gate hCurrent" "gate TotalCurrent" "gate Charge" "source OuterVoltage" "source InnerVoltage"
    "source QuasiFermiPotential" "source DisplacementCurrent" "source eCurrent" "source hCurrent" "source TotalCurrent"
    "source Charge" "drain OuterVoltage" "drain InnerVoltage" "drain QuasiFermiPotential" "drain DisplacementCurrent"
    "drain eCurrent" "drain hCurrent" "drain TotalCurrent" "drain Charge" ]
  functions = [
    Time
    OuterVoltage InnerVoltage QuasiFermiPotential DisplacementCurrent eCurrent
    hCurrent TotalCurrent Charge OuterVoltage InnerVoltage
    QuasiFermiPotential DisplacementCurrent eCurrent hCurrent TotalCurrent
    Charge OuterVoltage InnerVoltage QuasiFermiPotential DisplacementCurrent
    eCurrent hCurrent TotalCurrent Charge ]
}

Data {
      0.00000000000000E+00
      0.00000000000000E+00   0.00000000000000E+00   0.00000000000000E+00   0.00000000000000E+00   0.00000000000000E+00
      0.00000000000000E+00   0.00000000000000E+00  -4.99440855691679E-16   0.00000000000000E+00   0.00000000000000E+00
      0.00000000000000E+00   0.00000000000000E+00  -2.97610852505018E-08   3.40455143126042E-27  -2.97610852505018E-08
      1.10986003728045E-16   7.80000000000000E-01   7.80000000000000E-01   0.00000000000000E+00   0.00000000000000E+00
      2.97610852505418E-08   1.69650190120249E-24   2.97610852505418E-08   3.89653202585223E-16
      1.66666666666667E-02
      1.30000000000000E-02   1.30000000000000E-02   0.00000000000000E+00   0.00000000000000E+00   0.00000000000000E+00
      0.00000000000000E+00   0.00000000000000E+00  -4.90066581741845E-16   0.00000000000000E+00   0.00000000000000E+00
      0.00000000000000E+00   0.00000000000000E+00  -4.73418647918287E-08  -5.26874102678822E-24  -4.73418647918287E-08
      1.06057224292691E-16   7.80000000000000E-01   7.80000000000000E-01   0.00000000000000E+00   0.00000000000000E+00
      4.73418647916368E-08   7.47870978442578E-20   4.73418647917116E-08   3.85219834290612E-16
      3.33333333333333E-02
      2.60000000000000E-02   2.60000000000000E-02   0.00000000000000E+00   0.00000000000000E+00   0.00000000000000E+00
      0.00000000000000E+00   0.00000000000000E+00  -4.80665497687281E-16   0.00000000000000E+00   0.00000000000000E+00
      0.00000000000000E+00   0.00000000000000E+00  -7.52381518050257E-08  -1.80037838201657E-24  -7.52381518050257E-08
      1.01111193059329E-16   7.80000000000000E-01   7.80000000000000E-01   0.00000000000000E+00   0.00000000000000E+00
      7.52381518071269E-08   3.76838115000049E-20   7.52381518071646E-08   3.80781581795451E-16
      5.00000000000000E-02
      3.90000000000000E-02   3.90000000000000E-02   0.00000000000000E+00   0.00000000000000E+00   0.00000000000000E+00
      0.00000000000000E+00   0.00000000000000E+00  -4.71235230857389E-16   0.00000000000000E+00   0.00000000000000E+00
      0.00000000000000E+00   0.00000000000000E+00  -1.19444486238000E-07  -5.46815764687914E-26  -1.19444486238000E-07
      9.61474787436718E-17   7.80000000000000E-01   7.80000000000000E-01   0.00000000000000E+00   0.00000000000000E+00
      1.19444486238708E-07  -2.65224844421528E-22   1.19444486238707E-07   3.76338415939954E-16
      6.66666666666667E-02
      5.20000000000000E-02   5.20000000000000E-02   0.00000000000000E+00   0.00000000000000E+00   0.00000000000000E+00
      0.00000000000000E+00   0.00000000000000E+00  -4.61772697811339E-16   0.00000000000000E+00   0.00000000000000E+00
      0.00000000000000E+00   0.00000000000000E+00  -1.89387240544927E-07  -3.23120836011234E-23  -1.89387240544927E-07
      9.11657581221529E-17   7.80000000000000E-01   7.80000000000000E-01   0.00000000000000E+00   0.00000000000000E+00
      1.89387245160638E-07  -6.51301883140700E-21   1.89387245160631E-07   3.71890311714551E-16
      8.33333333333333E-02
      6.50000000000000E-02   6.50000000000000E-02   0.00000000000000E+00   0.00000000000000E+00   0.00000000000000E+00
      0.00000000000000E+00   0.00000000000000E+00  -4.52273798114475E-16   0.00000000000000E+00   0.00000000000000E+00
      0.00000000000000E+00   0.00000000000000E+00  -2.99839426304262E-07   3.75171523334431E-23  -2.99839426304262E-07
      8.61658753735102E-17   7.80000000000000E-01   7.80000000000000E-01   0.00000000000000E+00   0.00000000000000E+00
      2.99839430722995E-07   2.69487395987432E-22   2.99839430722996E-07   3.67437250658637E-16
      1.00000000000000E-01
      7.80000000000000E-02   7.80000000000000E-02   0.00000000000000E+00   0.00000000000000E+00   0.00000000000000E+00
      0.00000000000000E+00   0.00000000000000E+00  -4.42732969265274E-16   0.00000000000000E+00   0.00000000000000E+00
      0.00000000000000E+00   0.00000000000000E+00  -4.73851657536964E-07   4.28417302180813E-23  -4.73851657536964E-07
      8.11479233345787E-17   7.80000000000000E-01   7.80000000000000E-01   0.00000000000000E+00   0.00000000000000E+00
      4.73851663433163E-07   5.90513888640363E-22   4.73851663433163E-07   3.62979224498873E-16
      1.16666666666667E-01
      9.10000000000000E-02   9.10000000000000E-02   0.00000000000000E+00   0.00000000000000E+00   0.00000000000000E+00
      0.00000000000000E+00   0.00000000000000E+00  -4.33142544647582E-16   0.00000000000000E+00   0.00000000000000E+00
      0.00000000000000E+00   0.00000000000000E+00  -7.47180607162669E-07   2.88879284411320E-23  -7.47180607162669E-07
      7.61123528089711E-17   7.80000000000000E-01   7.80000000000000E-01   0.00000000000000E+00   0.00000000000000E+00
      7.47180614428039E-07   8.89350080747788E-22   7.47180614428039E-07   3.58516239975317E-16
      1.33333333333333E-01
      1.04000000000000E-01   1.04000000000000E-01   0.00000000000000E+00   0.00000000000000E+00   0.00000000000000E+00
      0.00000000000000E+00   0.00000000000000E+00  -4.23491842634206E-16   0.00000000000000E+00   0.00000000000000E+00
      0.00000000000000E+00   0.00000000000000E+00  -1.17485629012297E-06   1.80006672586983E-23  -1.17485629012297E-06
      7.10601160980501E-17   7.80000000000000E-01   7.80000000000000E-01   0.00000000000000E+00   0.00000000000000E+00
      1.17485629851718E-06   1.44258993112356E-21   1.17485629851719E-06   3.54048325258764E-16
      1.50000000000000E-01
      1.17000000000000E-01   1.17000000000000E-01   0.00000000000000E+00   0.00000000000000E+00   0.00000000000000E+00
      0.00000000000000E+00   0.00000000000000E+00  -4.13765908569124E-16   0.00000000000000E+00   0.00000000000000E+00
      0.00000000000000E+00   0.00000000000000E+00  -1.84066000357850E-06   1.14187995698712E-23  -1.84066000357850E-06
      6.59928489458037E-17   7.80000000000000E-01   7.80000000000000E-01   0.00000000000000E+00   0.00000000000000E+00
      1.84066001459993E-06   2.26770334809108E-21   1.84066001459993E-06   3.49575538351375E-16
      1.66666666666667E-01
      1.30000000000000E-01   1.30000000000000E-01   0.00000000000000E+00   0.00000000000000E+00   0.00000000000000E+00
      0.00000000000000E+00   0.00000000000000E+00  -4.03943850437261E-16   0.00000000000000E+00   0.00000000000000E+00
      0.00000000000000E+00   0.00000000000000E+00  -2.87026022136991E-06   7.34812470694634E-24  -2.87026022136991E-06
      6.09130889321202E-17   7.80000000000000E-01   7.80000000000000E-01   0.00000000000000E+00   0.00000000000000E+00
      2.87026024722062E-06   2.74048729570122E-21   2.87026024722062E-06   3.45097978100854E-16
      1.83333333333333E-01
      1.43000000000000E-01   1.43000000000000E-01   0.00000000000000E+00   0.00000000000000E+00   0.00000000000000E+00
      0.00000000000000E+00   0.00000000000000E+00  -3.93996785649137E-16   0.00000000000000E+00   0.00000000000000E+00
      0.00000000000000E+00   0.00000000000000E+00  -4.44832386995455E-06   3.41749710949793E-24  -4.44832386995455E-06
      5.58245148673457E-17   7.80000000000000E-01   7.80000000000000E-01   0.00000000000000E+00   0.00000000000000E+00
      4.44832396401455E-06  -2.04402064979835E-21   4.44832396401455E-06   3.40615799951157E-16
      2.00000000000000E-01
      1.56000000000000E-01   1.56000000000000E-01   0.00000000000000E+00   0.00000000000000E+00   0.00000000000000E+00
      0.00000000000000E+00   0.00000000000000E+00  -3.83885592819756E-16   0.00000000000000E+00   0.00000000000000E+00
      0.00000000000000E+00   0.00000000000000E+00  -6.83869477919273E-06  -4.00009306900733E-25  -6.83869477919273E-06
      5.07321678102769E-17   7.80000000000000E-01   7.80000000000000E-01   0.00000000000000E+00   0.00000000000000E+00
      6.83869512838570E-06  -1.59716165230740E-20   6.83869512838568E-06   3.36129240096252E-16
      2.16666666666667E-01
      1.69000000000000E-01   1.69000000000000E-01   0.00000000000000E+00   0.00000000000000E+00   0.00000000000000E+00
      0.00000000000000E+00   0.00000000000000E+00  -3.73558946557609E-16   0.00000000000000E+00   0.00000000000000E+00
      0.00000000000000E+00   0.00000000000000E+00  -1.04043466853088E-05   1.52137855604345E-24  -1.04043466853088E-05
      4.56425806514062E-17   7.80000000000000E-01   7.80000000000000E-01   0.00000000000000E+00   0.00000000000000E+00
      1.04043478327488E-05  -5.10419701709387E-21   1.04043478327488E-05   3.31638627254418E-16
      2.33333333333333E-01
      1.82000000000000E-01   1.82000000000000E-01   0.00000000000000E+00   0.00000000000000E+00   0.00000000000000E+00
      0.00000000000000E+00   0.00000000000000E+00  -3.62952470469995E-16   0.00000000000000E+00   0.00000000000000E+00
      0.00000000000000E+00   0.00000000000000E+00  -1.56205543868461E-05   8.58383155999333E-25  -1.56205543868461E-05
      4.05637119498716E-17   7.80000000000000E-01   7.80000000000000E-01   0.00000000000000E+00   0.00000000000000E+00
      1.56205575280506E-05  -2.77413382011683E-23   1.56205575280506E-05   3.27144338197203E-16
      2.50000000000000E-01
      1.95000000000000E-01   1.95000000000000E-01   0.00000000000000E+00   0.00000000000000E+00   0.00000000000000E+00
      0.00000000000000E+00   0.00000000000000E+00  -3.51990086543623E-16   0.00000000000000E+00   0.00000000000000E+00
      0.00000000000000E+00   0.00000000000000E+00  -2.30727426936917E-05   2.60082902326367E-24  -2.30727426936917E-05
      3.55045837901591E-17   7.80000000000000E-01   7.80000000000000E-01   0.00000000000000E+00   0.00000000000000E+00
      2.30727499415886E-05  -8.62294644413618E-25   2.30727499415886E-05   3.22646751289460E-16
      2.66666666666667E-01
      2.08000000000000E-01   2.08000000000000E-01   0.00000000000000E+00   0.00000000000000E+00   0.00000000000000E+00
      0.00000000000000E+00   0.00000000000000E+00  -3.40587903000689E-16   0.00000000000000E+00   0.00000000000000E+00
      0.00000000000000E+00   0.00000000000000E+00  -3.34353683706908E-05   8.97373576661566E-24  -3.34353683706908E-05
      3.04746151432467E-17   7.80000000000000E-01   7.80000000000000E-01   0.00000000000000E+00   0.00000000000000E+00
      3.34353823042398E-05   1.14812706132413E-24   3.34353823042398E-05   3.18146204257116E-16
      2.83333333333333E-01
      2.21000000000000E-01   2.21000000000000E-01   0.00000000000000E+00   0.00000000000000E+00   0.00000000000000E+00
      0.00000000000000E+00   0.00000000000000E+00  -3.28657937892964E-16   0.00000000000000E+00   0.00000000000000E+00
      0.00000000000000E+00   0.00000000000000E+00  -4.74546352544289E-05   1.04266711351183E-24  -4.74546352544289E-05
      2.54828945407660E-17   7.80000000000000E-01   7.80000000000000E-01   0.00000000000000E+00   0.00000000000000E+00
      4.74546575395749E-05   3.43419537753314E-25   4.74546575395749E-05   3.13642930142648E-16
      3.00000000000000E-01
      2.34000000000000E-01   2.34000000000000E-01   0.00000000000000E+00   0.00000000000000E+00   0.00000000000000E+00
      0.00000000000000E+00   0.00000000000000E+00  -3.16120633671584E-16   0.00000000000000E+00   0.00000000000000E+00
      0.00000000000000E+00   0.00000000000000E+00  -6.58376834770465E-05  -2.51740471942959E-24  -6.58376834770465E-05
      2.05374978030633E-17   7.80000000000000E-01   7.80000000000000E-01   0.00000000000000E+00   0.00000000000000E+00
      6.58377241971660E-05   1.12560720912969E-24   6.58377241971660E-05   3.09136921777630E-16
      3.16666666666667E-01
      2.47000000000000E-01   2.47000000000000E-01   0.00000000000000E+00   0.00000000000000E+00   0.00000000000000E+00
      0.00000000000000E+00   0.00000000000000E+00  -3.03128726395146E-16   0.00000000000000E+00   0.00000000000000E+00
      0.00000000000000E+00   0.00000000000000E+00  -8.71629472697879E-05  -1.51771704867279E-22  -8.71629472697879E-05
      1.56302747174232E-17   7.80000000000000E-01   7.80000000000000E-01   0.00000000000000E+00   0.00000000000000E+00
      8.71629965315954E-05  -4.36198769114699E-25   8.71629965315954E-05   3.04626932232944E-16
      3.33333333333333E-01
      2.60000000000000E-01   2.60000000000000E-01   0.00000000000000E+00   0.00000000000000E+00   0.00000000000000E+00
      0.00000000000000E+00   0.00000000000000E+00  -2.89579707323487E-16   0.00000000000000E+00   0.00000000000000E+00
      0.00000000000000E+00   0.00000000000000E+00  -1.12320319034381E-04  -3.82660361364189E-22  -1.12320319034381E-04
      1.07661543751778E-17   7.80000000000000E-01   7.80000000000000E-01   0.00000000000000E+00   0.00000000000000E+00
      1.12320324673368E-04   4.66797338621440E-25   1.12320324673368E-04   3.00113186487805E-16
      3.50000000000000E-01
      2.73000000000000E-01   2.73000000000000E-01   0.00000000000000E+00   0.00000000000000E+00   0.00000000000000E+00
      0.00000000000000E+00   0.00000000000000E+00  -2.75436733987335E-16   0.00000000000000E+00   0.00000000000000E+00
      0.00000000000000E+00   0.00000000000000E+00  -1.41595928530670E-04  -7.05661339540850E-23  -1.41595928530670E-04
      5.94945693315846E-18   7.80000000000000E-01   7.80000000000000E-01   0.00000000000000E+00   0.00000000000000E+00
      1.41595948060318E-04  -2.89069962194311E-25   1.41595948060318E-04   2.95595361980702E-16
      3.66666666666667E-01
      2.86000000000000E-01   2.86000000000000E-01   0.00000000000000E+00   0.00000000000000E+00   0.00000000000000E+00
      0.00000000000000E+00   0.00000000000000E+00  -2.60719142841271E-16   0.00000000000000E+00   0.00000000000000E+00
      0.00000000000000E+00   0.00000000000000E+00  -1.74858409983000E-04  -1.12406094084403E-22  -1.74858409983000E-04
      1.17759047355248E-18   7.80000000000000E-01   7.80000000000000E-01   0.00000000000000E+00   0.00000000000000E+00
      1.74858421584736E-04  -1.00457960593148E-24   1.74858421584736E-04   2.91072828186892E-16
      3.83333333333333E-01
      2.99000000000000E-01   2.99000000000000E-01   0.00000000000000E+00   0.00000000000000E+00   0.00000000000000E+00
      0.00000000000000E+00   0.00000000000000E+00  -2.45453641507400E-16   0.00000000000000E+00   0.00000000000000E+00
      0.00000000000000E+00   0.00000000000000E+00  -2.11901632421124E-04  -2.42515657042461E-23  -2.11901632421124E-04
     -3.55250150864311E-18   7.80000000000000E-01   7.80000000000000E-01   0.00000000000000E+00   0.00000000000000E+00
      2.11901932667346E-04  -1.27038540844871E-24   2.11901932667346E-04   2.86544904259846E-16
      4.00000000000000E-01
      3.12000000000000E-01   3.12000000000000E-01   0.00000000000000E+00   0.00000000000000E+00   0.00000000000000E+00
      0.00000000000000E+00   0.00000000000000E+00  -2.29671050637078E-16   0.00000000000000E+00   0.00000000000000E+00
      0.00000000000000E+00   0.00000000000000E+00  -2.52482841092076E-04  -1.53971442552065E-23  -2.52482841092076E-04
     -8.24407943931488E-18   7.80000000000000E-01   7.80000000000000E-01   0.00000000000000E+00   0.00000000000000E+00
      2.52482846060309E-04  -7.13223829323456E-25   2.52482846060309E-04   2.82010862946573E-16
      4.16666666666667E-01
      3.25000000000000E-01   3.25000000000000E-01   0.00000000000000E+00   0.00000000000000E+00   0.00000000000000E+00
      0.00000000000000E+00   0.00000000000000E+00  -2.13402728559492E-16   0.00000000000000E+00   0.00000000000000E+00
      0.00000000000000E+00   0.00000000000000E+00  -2.96347209173401E-04  -1.76166079339505E-23  -2.96347209173401E-04
     -1.29004558021787E-17   7.80000000000000E-01   7.80000000000000E-01   0.00000000000000E+00   0.00000000000000E+00
      2.96347212499238E-04  -1.42940372586303E-25   2.96347212499238E-04   2.77469953352405E-16
      4.33333333333333E-01
      3.38000000000000E-01   3.38000000000000E-01   0.00000000000000E+00   0.00000000000000E+00   0.00000000000000E+00
      0.00000000000000E+00   0.00000000000000E+00  -1.96679323581971E-16   0.00000000000000E+00   0.00000000000000E+00
      0.00000000000000E+00   0.00000000000000E+00  -3.43245171343491E-04  -1.17754497049980E-24  -3.43245171343491E-04
     -1.75247570265628E-17   7.80000000000000E-01   7.80000000000000E-01   0.00000000000000E+00   0.00000000000000E+00
      3.43245173675819E-04  -6.15270392521805E-27   3.43245173675819E-04   2.72921426862819E-16
      4.50000000000000E-01
      3.51000000000000E-01   3.51000000000000E-01   0.00000000000000E+00   0.00000000000000E+00   0.00000000000000E+00
      0.00000000000000E+00   0.00000000000000E+00  -1.79529993872664E-16   0.00000000000000E+00   0.00000000000000E+00
      0.00000000000000E+00   0.00000000000000E+00  -3.92940261599123E-04  -4.38816222398073E-24  -3.92940261599123E-04
     -2.21198892808586E-17   7.80000000000000E-01   7.80000000000000E-01   0.00000000000000E+00   0.00000000000000E+00
      3.92940263347199E-04  -3.50061017786774E-28   3.92940263347199E-04   2.68364546250215E-16
      4.66666666666667E-01
      3.64000000000000E-01   3.64000000000000E-01   0.00000000000000E+00   0.00000000000000E+00   0.00000000000000E+00
      0.00000000000000E+00   0.00000000000000E+00  -1.61981694704468E-16   0.00000000000000E+00   0.00000000000000E+00
      0.00000000000000E+00   0.00000000000000E+00  -4.45211963071063E-04  -1.22860260085736E-24  -4.45211963071063E-04
     -2.66885045116935E-17   7.80000000000000E-01   7.80000000000000E-01   0.00000000000000E+00   0.00000000000000E+00
      4.45211964389312E-04  -2.18842634854557E-28   4.45211964389312E-04   2.63798635081717E-16
      4.83333333333333E-01
      3.77000000000000E-01   3.77000000000000E-01   0.00000000000000E+00   0.00000000000000E+00   0.00000000000000E+00
      0.00000000000000E+00   0.00000000000000E+00  -1.44059655032377E-16   0.00000000000000E+00   0.00000000000000E+00
      0.00000000000000E+00   0.00000000000000E+00  -4.99856426131278E-04  -9.98608615342804E-25  -4.99856426131278E-04
     -3.12329824034374E-17   7.80000000000000E-01   7.80000000000000E-01   0.00000000000000E+00   0.00000000000000E+00
      4.99856427149825E-04   2.00337248443013E-28   4.99856427149825E-04   2.59223064405279E-16
      5.00000000000000E-01
      3.90000000000000E-01   3.90000000000000E-01   0.00000000000000E+00   0.00000000000000E+00   0.00000000000000E+00
      0.00000000000000E+00   0.00000000000000E+00  -1.25787004385263E-16   0.00000000000000E+00   0.00000000000000E+00
      0.00000000000000E+00   0.00000000000000E+00  -5.56685847351378E-04  -6.46525795801642E-25  -5.56685847351378E-04
     -3.57554841962557E-17   7.80000000000000E-01   7.80000000000000E-01   0.00000000000000E+00   0.00000000000000E+00
      5.56685848162655E-04   1.91031625633088E-28   5.56685848162655E-04   2.54637294141729E-16
      5.16666666666667E-01
      4.03000000000000E-01   4.03000000000000E-01   0.00000000000000E+00   0.00000000000000E+00   0.00000000000000E+00
      0.00000000000000E+00   0.00000000000000E+00  -1.07185535024456E-16   0.00000000000000E+00   0.00000000000000E+00
      0.00000000000000E+00   0.00000000000000E+00  -6.15526949042708E-04  -2.03391266760362E-25  -6.15526949042708E-04
     -4.02579554853277E-17   7.80000000000000E-01   7.80000000000000E-01   0.00000000000000E+00   0.00000000000000E+00
      6.15526949696284E-04   9.94509975073175E-29   6.15526949696284E-04   2.50040829590592E-16
      5.33333333333333E-01
      4.16000000000000E-01   4.16000000000000E-01   0.00000000000000E+00   0.00000000000000E+00   0.00000000000000E+00
      0.00000000000000E+00   0.00000000000000E+00  -8.82755251782193E-17   0.00000000000000E+00   0.00000000000000E+00
      0.00000000000000E+00   0.00000000000000E+00  -6.76218835074428E-04  -4.33276383227325E-26  -6.76218835074428E-04
     -4.47421589486688E-17   7.80000000000000E-01   7.80000000000000E-01   0.00000000000000E+00   0.00000000000000E+00
      6.76218835610335E-04   3.90535266333547E-29   6.76218835610335E-04   2.45433260448002E-16
      5.50000000000000E-01
      4.29000000000000E-01   4.29000000000000E-01   0.00000000000000E+00   0.00000000000000E+00   0.00000000000000E+00
      0.00000000000000E+00   0.00000000000000E+00  -6.90759402641701E-17   0.00000000000000E+00   0.00000000000000E+00
      0.00000000000000E+00   0.00000000000000E+00  -7.38611993044497E-04  -3.82198677338711E-27  -7.38611993044497E-04
     -4.92097180493669E-17   7.80000000000000E-01   7.80000000000000E-01   0.00000000000000E+00   0.00000000000000E+00
      7.38611993488381E-04   9.07519693827827E-30   7.38611993488381E-04   2.40814254890732E-16
      5.66666666666667E-01
      4.42000000000000E-01   4.42000000000000E-01   0.00000000000000E+00   0.00000000000000E+00   0.00000000000000E+00
      0.00000000000000E+00   0.00000000000000E+00  -4.96046013877534E-17   0.00000000000000E+00   0.00000000000000E+00
      0.00000000000000E+00   0.00000000000000E+00  -8.02566994276545E-04   8.40268025183341E-27  -8.02566994276545E-04
     -5.36621379439423E-17   7.80000000000000E-01   7.80000000000000E-01   0.00000000000000E+00   0.00000000000000E+00
      8.02566994647711E-04  -3.63081866495187E-30   8.02566994647711E-04   2.36183561341128E-16
      5.83333333333333E-01
      4.55000000000000E-01   4.55000000000000E-01   0.00000000000000E+00   0.00000000000000E+00   0.00000000000000E+00
      0.00000000000000E+00   0.00000000000000E+00  -2.98783754037937E-17   0.00000000000000E+00   0.00000000000000E+00
      0.00000000000000E+00   0.00000000000000E+00  -8.67952952523849E-04   6.98247082221972E-27  -8.67952952523849E-04
     -5.81008076021444E-17   7.80000000000000E-01   7.80000000000000E-01   0.00000000000000E+00   0.00000000000000E+00
      8.67952952836635E-04  -8.85254940613839E-30   8.67952952836635E-04   2.31541002430878E-16
      6.00000000000000E-01
      4.68000000000000E-01   4.68000000000000E-01   0.00000000000000E+00   0.00000000000000E+00   0.00000000000000E+00
      0.00000000000000E+00   0.00000000000000E+00  -9.91330018093949E-18   0.00000000000000E+00   0.00000000000000E+00
      0.00000000000000E+00   0.00000000000000E+00  -9.34646419045850E-04   4.86797925081518E-27  -9.34646419045850E-04
     -6.25270060646829E-17   7.80000000000000E-01   7.80000000000000E-01   0.00000000000000E+00   0.00000000000000E+00
      9.34646419310275E-04  -1.04979537908766E-29   9.34646419310275E-04   2.26886476152545E-16
      6.16666666666667E-01
      4.81000000000000E-01   4.81000000000000E-01   0.00000000000000E+00   0.00000000000000E+00   0.00000000000000E+00
      0.00000000000000E+00   0.00000000000000E+00   1.02754013340782E-17   0.00000000000000E+00   0.00000000000000E+00
      0.00000000000000E+00   0.00000000000000E+00  -1.00253172713681E-03   2.87083553924940E-27  -1.00253172713681E-03
     -6.69419417025797E-17   7.80000000000000E-01   7.80000000000000E-01   0.00000000000000E+00   0.00000000000000E+00
      1.00253172735957E-03  -9.98620546782290E-30   1.00253172735957E-03   2.22219939067963E-16
      6.33333333333334E-01
      4.94000000000000E-01   4.94000000000000E-01   0.00000000000000E+00   0.00000000000000E+00   0.00000000000000E+00
      0.00000000000000E+00   0.00000000000000E+00   3.06734112635586E-17   0.00000000000000E+00   0.00000000000000E+00
      0.00000000000000E+00   0.00000000000000E+00  -1.07150000067816E-03   1.37655218661621E-27  -1.07150000067816E-03
     -7.13467477280886E-17   7.80000000000000E-01   7.80000000000000E-01   0.00000000000000E+00   0.00000000000000E+00
      1.07150000086805E-03  -8.46586833780018E-30   1.07150000086805E-03   2.17541426982811E-16
      6.50000000000000E-01
      5.07000000000000E-01   5.07000000000000E-01   0.00000000000000E+00   0.00000000000000E+00   0.00000000000000E+00
      0.00000000000000E+00   0.00000000000000E+00   5.12673333390912E-17   0.00000000000000E+00   0.00000000000000E+00
      0.00000000000000E+00   0.00000000000000E+00  -1.14144831395753E-03   5.32983360585831E-28  -1.14144831395753E-03
     -7.57424748928976E-17   7.80000000000000E-01   7.80000000000000E-01   0.00000000000000E+00   0.00000000000000E+00
      1.14144831412057E-03  -6.84519559417321E-30   1.14144831412057E-03   2.12851079766169E-16
      6.66666666666667E-01
      5.20000000000000E-01   5.20000000000000E-01   0.00000000000000E+00   0.00000000000000E+00   0.00000000000000E+00
      0.00000000000000E+00   0.00000000000000E+00   7.20442222711638E-17   0.00000000000000E+00   0.00000000000000E+00
      0.00000000000000E+00   0.00000000000000E+00  -1.21228046875179E-03   9.59753132874539E-29  -1.21228046875179E-03
     -8.01301118209998E-17   7.80000000000000E-01   7.80000000000000E-01   0.00000000000000E+00   0.00000000000000E+00
      1.21228046889216E-03  -5.33837159011323E-30   1.21228046889216E-03   2.08149037248782E-16
      6.83333333333334E-01
      5.33000000000000E-01   5.33000000000000E-01   0.00000000000000E+00   0.00000000000000E+00   0.00000000000000E+00
      0.00000000000000E+00   0.00000000000000E+00   9.29917604452420E-17   0.00000000000000E+00   0.00000000000000E+00
      0.00000000000000E+00   0.00000000000000E+00  -1.28390626764533E-03  -1.48644862250737E-28  -1.28390626764533E-03
     -8.45105808243023E-17   7.80000000000000E-01   7.80000000000000E-01   0.00000000000000E+00   0.00000000000000E+00
      1.28390626776589E-03  -3.78617238919630E-30   1.28390626776589E-03   2.03435430775553E-16
      7.00000000000001E-01
      5.46000000000000E-01   5.46000000000000E-01   0.00000000000000E+00   0.00000000000000E+00   0.00000000000000E+00
      0.00000000000000E+00   0.00000000000000E+00   1.14098895568141E-16   0.00000000000000E+00   0.00000000000000E+00
      0.00000000000000E+00   0.00000000000000E+00  -1.35624068694495E-03  -1.86564679245122E-28  -1.35624068694495E-03
     -8.88847387575432E-17   7.80000000000000E-01   7.80000000000000E-01   0.00000000000000E+00   0.00000000000000E+00
      1.35624068705118E-03  -2.34854297871489E-30   1.35624068705118E-03   1.98710580601600E-16
      7.16666666666667E-01
      5.59000000000000E-01   5.59000000000000E-01   0.00000000000000E+00   0.00000000000000E+00   0.00000000000000E+00
      0.00000000000000E+00   0.00000000000000E+00   1.35355102106159E-16   0.00000000000000E+00   0.00000000000000E+00
      0.00000000000000E+00   0.00000000000000E+00  -1.42920449188423E-03  -2.05612463722158E-28  -1.42920449188423E-03
     -9.32533820296295E-17   7.80000000000000E-01   7.80000000000000E-01   0.00000000000000E+00   0.00000000000000E+00
      1.42920449197589E-03  -1.43298261468242E-30   1.42920449197589E-03   1.93974847648337E-16
      7.33333333333334E-01
      5.72000000000001E-01   5.72000000000001E-01   0.00000000000000E+00   0.00000000000000E+00   0.00000000000000E+00
      0.00000000000000E+00   0.00000000000000E+00   1.56749992315735E-16   0.00000000000000E+00   0.00000000000000E+00
      0.00000000000000E+00   0.00000000000000E+00  -1.50272421964156E-03  -1.84493363022406E-28  -1.50272421964156E-03
     -9.76172483265896E-17   7.80000000000000E-01   7.80000000000000E-01   0.00000000000000E+00   0.00000000000000E+00
      1.50272421972100E-03  -7.96410441657566E-31   1.50272421972100E-03   1.89228383951025E-16
      7.50000000000001E-01
      5.85000000000001E-01   5.85000000000001E-01   0.00000000000000E+00   0.00000000000000E+00   0.00000000000000E+00
      0.00000000000000E+00   0.00000000000000E+00   1.78274590221701E-16   0.00000000000000E+00   0.00000000000000E+00
      0.00000000000000E+00   0.00000000000000E+00  -1.57673041653364E-03   7.43967921646891E-28  -1.57673041653364E-03
     -1.01977006776188E-16   7.80000000000000E-01   7.80000000000000E-01   0.00000000000000E+00   0.00000000000000E+00
      1.57673048205977E-03  -1.89325649165768E-29   1.57673048205977E-03   1.84471680816065E-16
      7.66666666666667E-01
      5.98000000000001E-01   5.98000000000001E-01   0.00000000000000E+00   0.00000000000000E+00   0.00000000000000E+00
      0.00000000000000E+00   0.00000000000000E+00   1.99920332853276E-16   0.00000000000000E+00   0.00000000000000E+00
      0.00000000000000E+00   0.00000000000000E+00  -1.65115961671095E-03  -6.53301981247372E-29  -1.65115961671095E-03
     -1.06333290734123E-16   7.80000000000000E-01   7.80000000000000E-01   0.00000000000000E+00   0.00000000000000E+00
      1.65115961677300E-03  -1.25647398519198E-31   1.65115961677300E-03   1.79705142245077E-16
      7.83333333333334E-01
      6.11000000000001E-01   6.11000000000001E-01   0.00000000000000E+00   0.00000000000000E+00   0.00000000000000E+00
      0.00000000000000E+00   0.00000000000000E+00   2.21678826400730E-16   0.00000000000000E+00   0.00000000000000E+00
      0.00000000000000E+00   0.00000000000000E+00  -1.72595293120141E-03  -3.10903323123060E-29  -1.72595293120141E-03
     -1.10686678908985E-16   7.80000000000000E-01   7.80000000000000E-01   0.00000000000000E+00   0.00000000000000E+00
      1.72595307848340E-03   1.10211666707845E-32   1.72595307848340E-03   1.74928997362210E-16
      8.00000000000001E-01
      6.24000000000001E-01   6.24000000000001E-01   0.00000000000000E+00   0.00000000000000E+00   0.00000000000000E+00
      0.00000000000000E+00   0.00000000000000E+00   2.43543385900415E-16   0.00000000000000E+00   0.00000000000000E+00