DF-ISE text

Info {
  version   = 1.0
  type      = xyplot
  datasets  = [
    "time"
    "gate OuterVoltage" "gate InnerVoltage" "gate QuasiFermiPotential" "gate DisplacementCurrent" "gate eCurrent"
    "gate hCurrent" "gate TotalCurrent" "gate Charge" "source OuterVoltage" "source InnerVoltage"
    "source QuasiFermiPotential" "source DisplacementCurrent" "source eCurrent" "source hCurrent" "source TotalCurrent"
    "source Charge" "drain OuterVoltage" "drain InnerVoltage" "drain QuasiFermiPotential" "drain DisplacementCurrent"
    "drain eCurrent" "drain hCurrent" "drain TotalCurrent" "drain Charge" ]
  functions = [
    Time
    OuterVoltage InnerVoltage QuasiFermiPotential DisplacementCurrent eCurrent
    hCurrent TotalCurrent Charge OuterVoltage InnerVoltage
    QuasiFermiPotential DisplacementCurrent eCurrent hCurrent TotalCurrent
    Charge OuterVoltage InnerVoltage QuasiFermiPotential DisplacementCurrent
    eCurrent hCurrent TotalCurrent Charge ]
}

Data {
      0.00000000000000E+00
      0.00000000000000E+00   0.00000000000000E+00   0.00000000000000E+00   0.00000000000000E+00   0.00000000000000E+00
      0.00000000000000E+00   0.00000000000000E+00   5.33200926756236E-16   0.00000000000000E+00   0.00000000000000E+00
      0.00000000000000E+00   0.00000000000000E+00   7.22752843703563E-08  -1.35125087177343E-17   7.22752843568438E-08
     -1.08485006460099E-16  -8.50000000000000E-01  -8.50000000000000E-01   0.00000000000000E+00   0.00000000000000E+00
     -7.22752843691906E-08   1.23575143315731E-17  -7.22752843568331E-08  -4.25928786549284E-16
      1.66666666666667E-02
     -1.41666666666667E-02  -1.41666666666667E-02   0.00000000000000E+00   0.00000000000000E+00   0.00000000000000E+00
      0.00000000000000E+00   0.00000000000000E+00   5.22523823005120E-16   0.00000000000000E+00   0.00000000000000E+00
      0.00000000000000E+00   0.00000000000000E+00   1.17200041594174E-07  -5.36796223163749E-13   1.17199504797951E-07
     -1.02893271480748E-16  -8.50000000000000E-01  -8.50000000000000E-01   0.00000000000000E+00   0.00000000000000E+00
     -1.17200015996889E-07  -2.80926895794157E-14  -1.17200044089579E-07  -4.20877115563700E-16
      3.33333333333333E-02
     -2.83333333333333E-02  -2.83333333333333E-02   0.00000000000000E+00   0.00000000000000E+00   0.00000000000000E+00
      0.00000000000000E+00   0.00000000000000E+00   5.11802727616455E-16   0.00000000000000E+00   0.00000000000000E+00
      0.00000000000000E+00   0.00000000000000E+00   1.89662406764733E-07  -1.11713093684659E-12   1.89661289633797E-07
     -9.72789035600192E-17  -8.50000000000000E-01  -8.50000000000000E-01   0.00000000000000E+00   0.00000000000000E+00
     -1.89662352022887E-07  -5.86105932117337E-14  -1.89662410633480E-07  -4.15817432057019E-16
      5.00000000000000E-02
     -4.25000000000000E-02  -4.25000000000000E-02   0.00000000000000E+00   0.00000000000000E+00   0.00000000000000E+00
      0.00000000000000E+00   0.00000000000000E+00   5.01032113334135E-16   0.00000000000000E+00   0.00000000000000E+00
      0.00000000000000E+00   0.00000000000000E+00   3.06186144806613E-07  -6.41401135833777E-15   3.06186138392601E-07
     -9.16417379406404E-17  -8.50000000000000E-01  -8.50000000000000E-01   0.00000000000000E+00   0.00000000000000E+00
     -3.06186144627359E-07   5.94161204904613E-16  -3.06186144033198E-07  -4.10749829166088E-16
      6.66666666666667E-02
     -5.66666666666667E-02  -5.66666666666667E-02   0.00000000000000E+00   0.00000000000000E+00   0.00000000000000E+00
      0.00000000000000E+00   0.00000000000000E+00   4.90204815344439E-16   0.00000000000000E+00   0.00000000000000E+00
      0.00000000000000E+00   0.00000000000000E+00   4.92862571283714E-07   2.78127984745400E-17   4.92862571311527E-07
     -8.59822312928404E-17  -8.50000000000000E-01  -8.50000000000000E-01   0.00000000000000E+00   0.00000000000000E+00
     -4.92862571283077E-07  -2.83971286755550E-17  -4.92862571311474E-07  -4.05674411219297E-16
      8.33333333333333E-02
     -7.08333333333333E-02  -7.08333333333333E-02   0.00000000000000E+00   0.00000000000000E+00   0.00000000000000E+00
      0.00000000000000E+00   0.00000000000000E+00   4.79311311281080E-16   0.00000000000000E+00   0.00000000000000E+00
      0.00000000000000E+00   0.00000000000000E+00   7.90530994016364E-07  -1.38325974699321E-17   7.90530994002531E-07
     -8.03016582227731E-17  -8.50000000000000E-01  -8.50000000000000E-01   0.00000000000000E+00   0.00000000000000E+00
     -7.90530993917342E-07  -8.52507236447448E-17  -7.90530994002592E-07  -4.00591298975114E-16
      1.00000000000000E-01
     -8.50000000000000E-02  -8.50000000000000E-02   0.00000000000000E+00   0.00000000000000E+00   0.00000000000000E+00
      0.00000000000000E+00   0.00000000000000E+00   4.68338719653619E-16   0.00000000000000E+00   0.00000000000000E+00
      0.00000000000000E+00   0.00000000000000E+00   1.26237704040425E-06  -1.32102063673038E-15   1.26237703908323E-06
     -7.46023374062246E-17  -8.50000000000000E-01  -8.50000000000000E-01   0.00000000000000E+00   0.00000000000000E+00
     -1.26237704061815E-06  -6.51924105321599E-17  -1.26237704068334E-06  -3.95500636117027E-16
      1.16666666666667E-01
     -9.91666666666667E-02  -9.91666666666667E-02   0.00000000000000E+00   0.00000000000000E+00   0.00000000000000E+00
      0.00000000000000E+00   0.00000000000000E+00   4.57269471726761E-16   0.00000000000000E+00   0.00000000000000E+00
      0.00000000000000E+00   0.00000000000000E+00   2.00465686343124E-06  -9.84740667810714E-15   2.00465685358384E-06
     -6.88878755274276E-17  -8.50000000000000E-01  -8.50000000000000E-01   0.00000000000000E+00   0.00000000000000E+00
     -2.00465686282827E-06  -7.93624881127022E-17  -2.00465686290764E-06  -3.90402596288347E-16
      1.33333333333333E-01
     -1.13333333333333E-01  -1.13333333333333E-01   0.00000000000000E+00   0.00000000000000E+00   0.00000000000000E+00
      0.00000000000000E+00   0.00000000000000E+00   4.46079675142548E-16   0.00000000000000E+00   0.00000000000000E+00
      0.00000000000000E+00   0.00000000000000E+00   3.16100759010457E-06  -4.74512866025729E-14   3.16100754265328E-06
     -6.31634011289380E-17  -8.50000000000000E-01  -8.50000000000000E-01   0.00000000000000E+00   0.00000000000000E+00
     -3.16100758966840E-06   3.20646054628743E-16  -3.16100758934775E-06  -3.85297389198251E-16
      1.50000000000000E-01
     -1.27500000000000E-01  -1.27500000000000E-01   0.00000000000000E+00   0.00000000000000E+00   0.00000000000000E+00
      0.00000000000000E+00   0.00000000000000E+00   4.34737319145747E-16   0.00000000000000E+00   0.00000000000000E+00
      0.00000000000000E+00   0.00000000000000E+00   4.94001692140412E-06  -1.71107620475455E-13   4.94001675029650E-06
     -5.74357341808150E-17  -8.50000000000000E-01  -8.50000000000000E-01   0.00000000000000E+00   0.00000000000000E+00
     -4.94001692119856E-06   3.58221034445937E-16  -4.94001692084034E-06  -3.80185262654307E-16
      1.66666666666667E-01
     -1.41666666666667E-01  -1.41666666666667E-01   0.00000000000000E+00   0.00000000000000E+00   0.00000000000000E+00
      0.00000000000000E+00   0.00000000000000E+00   4.23200677943920E-16   0.00000000000000E+00   0.00000000000000E+00
      0.00000000000000E+00   0.00000000000000E+00   7.63421706376528E-06  -5.05942603333198E-13   7.63421655782267E-06
     -5.17134087248244E-17  -8.50000000000000E-01  -8.50000000000000E-01   0.00000000000000E+00   0.00000000000000E+00
     -7.63421706129691E-06  -7.23917392155210E-16  -7.63421706202083E-06  -3.75066495375546E-16
      1.83333333333333E-01
     -1.55833333333333E-01  -1.55833333333333E-01   0.00000000000000E+00   0.00000000000000E+00   0.00000000000000E+00
      0.00000000000000E+00   0.00000000000000E+00   4.11417468289476E-16   0.00000000000000E+00   0.00000000000000E+00
      0.00000000000000E+00   0.00000000000000E+00   1.16368547102201E-05  -1.26201994343184E-12   1.16368534482002E-05
     -4.60064558057047E-17  -8.50000000000000E-01  -8.50000000000000E-01   0.00000000000000E+00   0.00000000000000E+00
     -1.16368547094691E-05  -4.39842057190511E-16  -1.16368547099089E-05  -3.69941373940282E-16
      2.00000000000000E-01
     -1.70000000000000E-01  -1.70000000000000E-01   0.00000000000000E+00   0.00000000000000E+00   0.00000000000000E+00
      0.00000000000000E+00   0.00000000000000E+00   3.99325249050362E-16   0.00000000000000E+00   0.00000000000000E+00
      0.00000000000000E+00   0.00000000000000E+00   1.74526473769699E-05  -2.71081362671962E-12   1.74526446661563E-05
     -4.03259011575287E-17  -8.50000000000000E-01  -8.50000000000000E-01   0.00000000000000E+00   0.00000000000000E+00
     -1.74526473791112E-05   8.10833453978204E-16  -1.74526473783004E-05  -3.64810148013649E-16
      2.16666666666667E-01
     -1.84166666666667E-01  -1.84166666666667E-01   0.00000000000000E+00   0.00000000000000E+00   0.00000000000000E+00
      0.00000000000000E+00   0.00000000000000E+00   3.86852693342544E-16   0.00000000000000E+00   0.00000000000000E+00
      0.00000000000000E+00   0.00000000000000E+00   2.57051453464506E-05  -5.04726679814666E-12   2.57051402991838E-05
     -3.46830839122238E-17  -8.50000000000000E-01  -8.50000000000000E-01   0.00000000000000E+00   0.00000000000000E+00
     -2.57051453467393E-05  -8.51355572360475E-16  -2.57051453475906E-05  -3.59672962352805E-16
      2.33333333333333E-01
     -1.98333333333333E-01  -1.98333333333333E-01   0.00000000000000E+00   0.00000000000000E+00   0.00000000000000E+00
      0.00000000000000E+00   0.00000000000000E+00   3.73918579008582E-16   0.00000000000000E+00   0.00000000000000E+00
      0.00000000000000E+00   0.00000000000000E+00   3.71685281054252E-05  -8.35160389703391E-12   3.71685197538213E-05
     -2.90892235416387E-17  -8.50000000000000E-01  -8.50000000000000E-01   0.00000000000000E+00   0.00000000000000E+00
     -3.71685281069220E-05   2.87573655299956E-15  -3.71685281040462E-05  -3.54529769074295E-16
      2.50000000000000E-01
     -2.12500000000000E-01  -2.12500000000000E-01   0.00000000000000E+00   0.00000000000000E+00   0.00000000000000E+00
      0.00000000000000E+00   0.00000000000000E+00   3.60413906135303E-16   0.00000000000000E+00   0.00000000000000E+00
      0.00000000000000E+00   0.00000000000000E+00   5.29642694088175E-05  -1.35203461443223E-11   5.29642558884713E-05
     -2.35566916629707E-17  -8.50000000000000E-01  -8.50000000000000E-01   0.00000000000000E+00   0.00000000000000E+00
     -5.29642693914717E-05  -9.28040081325358E-15  -5.29642694007521E-05  -3.49380216090482E-16
      2.66666666666667E-01
     -2.26666666666667E-01  -2.26666666666667E-01   0.00000000000000E+00   0.00000000000000E+00   0.00000000000000E+00
      0.00000000000000E+00   0.00000000000000E+00   3.46407764046432E-16   0.00000000000000E+00   0.00000000000000E+00
      0.00000000000000E+00   0.00000000000000E+00   7.26436864830831E-05  -1.52075208650901E-11   7.26436712755622E-05
     -1.80855249664886E-17  -8.50000000000000E-01  -8.50000000000000E-01   0.00000000000000E+00   0.00000000000000E+00
     -7.26436864619778E-05   6.33545702113603E-16  -7.26436864613442E-05  -3.44223082300192E-16
      2.83333333333333E-01
     -2.40833333333333E-01  -2.40833333333333E-01   0.00000000000000E+00   0.00000000000000E+00   0.00000000000000E+00
      0.00000000000000E+00   0.00000000000000E+00   3.32447005037582E-16   0.00000000000000E+00   0.00000000000000E+00
      0.00000000000000E+00   0.00000000000000E+00   9.12762768633738E-05   1.52861788296448E-11   9.12762921495526E-05
     -1.26083365067133E-17  -8.50000000000000E-01  -8.50000000000000E-01   0.00000000000000E+00   0.00000000000000E+00
     -9.12762768201282E-05  -1.58556823436247E-12  -9.12762784056964E-05  -3.39057502946206E-16
      3.00000000000000E-01
     -2.55000000000000E-01  -2.55000000000000E-01   0.00000000000000E+00   0.00000000000000E+00   0.00000000000000E+00
      0.00000000000000E+00   0.00000000000000E+00   3.18058420314831E-16   0.00000000000000E+00   0.00000000000000E+00
      0.00000000000000E+00   0.00000000000000E+00   1.12465974554144E-04  -1.48293037072264E-11   1.12465959724841E-04
     -7.19213357750127E-18  -8.50000000000000E-01  -8.50000000000000E-01   0.00000000000000E+00   0.00000000000000E+00
     -1.12465974591483E-04   5.32755321749224E-15  -1.12465974586155E-04  -3.33884877271784E-16
      3.16666666666667E-01
     -2.69166666666667E-01  -2.69166666666667E-01   0.00000000000000E+00   0.00000000000000E+00   0.00000000000000E+00
      0.00000000000000E+00   0.00000000000000E+00   3.03255966800397E-16   0.00000000000000E+00   0.00000000000000E+00
      0.00000000000000E+00   0.00000000000000E+00   1.36349058806524E-04  -5.23422496388190E-12   1.36349053572299E-04
     -1.82997295415966E-18  -8.50000000000000E-01  -8.50000000000000E-01   0.00000000000000E+00   0.00000000000000E+00
     -1.36349058822068E-04   1.28654538333139E-14  -1.36349058809202E-04  -3.28704558003059E-16
      3.33333333333333E-01
     -2.83333333333333E-01  -2.83333333333333E-01   0.00000000000000E+00   0.00000000000000E+00   0.00000000000000E+00
      0.00000000000000E+00   0.00000000000000E+00   2.88058275962115E-16   0.00000000000000E+00   0.00000000000000E+00
      0.00000000000000E+00   0.00000000000000E+00   1.62678849535417E-04  -4.47367207883118E-12   1.62678845061745E-04
      3.48054250765518E-18  -8.50000000000000E-01  -8.50000000000000E-01   0.00000000000000E+00   0.00000000000000E+00
     -1.62678849499671E-04  -3.31213404210530E-14  -1.62678849532792E-04  -3.23516314345126E-16
      3.50000000000000E-01
     -2.97500000000000E-01  -2.97500000000000E-01   0.00000000000000E+00   0.00000000000000E+00   0.00000000000000E+00
      0.00000000000000E+00   0.00000000000000E+00   2.72473283938031E-16   0.00000000000000E+00   0.00000000000000E+00
      0.00000000000000E+00   0.00000000000000E+00   1.91288486692059E-04  -3.25042257754414E-12   1.91288483441636E-04
      8.74116506603420E-18  -8.50000000000000E-01  -8.50000000000000E-01   0.00000000000000E+00   0.00000000000000E+00
     -1.91288486679219E-04   2.30387684506488E-14  -1.91288486656181E-04  -3.18320730544675E-16
      3.66666666666667E-01
     -3.11666666666667E-01  -3.11666666666667E-01   0.00000000000000E+00   0.00000000000000E+00   0.00000000000000E+00
      0.00000000000000E+00   0.00000000000000E+00   2.56541881781478E-16   0.00000000000000E+00   0.00000000000000E+00
      0.00000000000000E+00   0.00000000000000E+00   2.22137840519985E-04  -1.82381636882254E-12   2.22137838696168E-04
      1.39571152094103E-17  -8.50000000000000E-01  -8.50000000000000E-01   0.00000000000000E+00   0.00000000000000E+00
     -2.22137840498961E-04  -5.08497882275512E-15  -2.22137840504046E-04  -3.13116056204489E-16
      3.83333333333333E-01
     -3.25833333333333E-01  -3.25833333333333E-01   0.00000000000000E+00   0.00000000000000E+00   0.00000000000000E+00
      0.00000000000000E+00   0.00000000000000E+00   2.40264596713187E-16   0.00000000000000E+00   0.00000000000000E+00
      0.00000000000000E+00   0.00000000000000E+00   2.54996337485982E-04  -1.57405268402195E-12   2.54996335911930E-04
      1.91307431111182E-17  -8.50000000000000E-01  -8.50000000000000E-01   0.00000000000000E+00   0.00000000000000E+00
     -2.54996337491660E-04   1.10759401037432E-14  -2.54996337480584E-04  -3.07903585752945E-16
      4.00000000000000E-01
     -3.40000000000000E-01  -3.40000000000000E-01   0.00000000000000E+00   0.00000000000000E+00   0.00000000000000E+00
      0.00000000000000E+00   0.00000000000000E+00   2.23658564610855E-16   0.00000000000000E+00   0.00000000000000E+00
      0.00000000000000E+00   0.00000000000000E+00   2.89620475503177E-04  -1.21925162788640E-12   2.89620474283925E-04
      2.42643850985642E-17  -8.50000000000000E-01  -8.50000000000000E-01   0.00000000000000E+00   0.00000000000000E+00
     -2.89620475511293E-04   1.20964453814849E-14  -2.89620475499197E-04  -3.02683251766143E-16
      4.16666666666667E-01
     -3.54166666666667E-01  -3.54166666666667E-01   0.00000000000000E+00   0.00000000000000E+00   0.00000000000000E+00
      0.00000000000000E+00   0.00000000000000E+00   2.06792890448006E-16   0.00000000000000E+00   0.00000000000000E+00
      0.00000000000000E+00   0.00000000000000E+00   3.26128492131834E-04  -9.12611784779959E-13   3.26128491219222E-04
      2.93623153089488E-17  -8.50000000000000E-01  -8.50000000000000E-01   0.00000000000000E+00   0.00000000000000E+00
     -3.26128492131694E-04  -2.52241836528588E-16  -3.26128492131946E-04  -2.97451351424892E-16
      4.33333333333333E-01
     -3.68333333333333E-01  -3.68333333333333E-01   0.00000000000000E+00   0.00000000000000E+00   0.00000000000000E+00
      0.00000000000000E+00   0.00000000000000E+00   1.89598315685184E-16   0.00000000000000E+00   0.00000000000000E+00
      0.00000000000000E+00   0.00000000000000E+00   3.63977736696358E-04  -9.92706469237405E-13   3.63977735703651E-04
      3.44248406732129E-17  -8.50000000000000E-01  -8.50000000000000E-01   0.00000000000000E+00   0.00000000000000E+00
     -3.63977736720056E-04   4.40039016054028E-14  -3.63977736676053E-04  -2.92215086280109E-16
      4.50000000000000E-01
     -3.82500000000000E-01  -3.82500000000000E-01   0.00000000000000E+00   0.00000000000000E+00   0.00000000000000E+00
      0.00000000000000E+00   0.00000000000000E+00   1.72162458156798E-16   0.00000000000000E+00   0.00000000000000E+00
      0.00000000000000E+00   0.00000000000000E+00   4.03306515259902E-04  -6.45244260507221E-13   4.03306514614658E-04
      3.94559405360572E-17  -8.50000000000000E-01  -8.50000000000000E-01   0.00000000000000E+00   0.00000000000000E+00
     -4.03306515260936E-04  -2.62852486534379E-16  -4.03306515261199E-04  -2.86968031496758E-16
      4.66666666666667E-01
     -3.96666666666667E-01  -3.96666666666667E-01   0.00000000000000E+00   0.00000000000000E+00   0.00000000000000E+00
      0.00000000000000E+00   0.00000000000000E+00   1.54517877514646E-16   0.00000000000000E+00   0.00000000000000E+00
      0.00000000000000E+00   0.00000000000000E+00   4.44070239064643E-04  -5.57750255371792E-13   4.44070238506893E-04
      4.44582664420340E-17  -8.50000000000000E-01  -8.50000000000000E-01   0.00000000000000E+00   0.00000000000000E+00
     -4.44070239064072E-04  -1.11161246668405E-15  -4.44070239065183E-04  -2.81708633465740E-16
      4.83333333333333E-01
     -4.10833333333333E-01  -4.10833333333333E-01   0.00000000000000E+00   0.00000000000000E+00   0.00000000000000E+00
      0.00000000000000E+00   0.00000000000000E+00   1.36600860569229E-16   0.00000000000000E+00   0.00000000000000E+00
      0.00000000000000E+00   0.00000000000000E+00   4.85860669200462E-04  -5.35915276312915E-13   4.85860668664546E-04
      4.94326843277814E-17  -8.50000000000000E-01  -8.50000000000000E-01   0.00000000000000E+00   0.00000000000000E+00
     -4.85860669213332E-04   1.87828183292634E-14  -4.85860669194550E-04  -2.76445467475446E-16
      5.00000000000000E-01
     -4.25000000000000E-01  -4.25000000000000E-01   0.00000000000000E+00   0.00000000000000E+00   0.00000000000000E+00
      0.00000000000000E+00   0.00000000000000E+00   1.18464350612885E-16   0.00000000000000E+00   0.00000000000000E+00
      0.00000000000000E+00   0.00000000000000E+00   5.28693929531853E-04  -4.07422090290797E-13   5.28693929124431E-04
      5.43819394886827E-17  -8.50000000000000E-01  -8.50000000000000E-01   0.00000000000000E+00   0.00000000000000E+00
     -5.28693929531422E-04  -9.07858256933090E-16  -5.28693929532330E-04  -2.71173712937827E-16
      5.16666666666667E-01
     -4.39166666666667E-01  -4.39166666666667E-01   0.00000000000000E+00   0.00000000000000E+00   0.00000000000000E+00
      0.00000000000000E+00   0.00000000000000E+00   1.00167849272428E-16   0.00000000000000E+00   0.00000000000000E+00
      0.00000000000000E+00   0.00000000000000E+00   5.72641754895304E-04  -3.55722428991226E-13   5.72641754539581E-04
      5.93087422706948E-17  -8.50000000000000E-01  -8.50000000000000E-01   0.00000000000000E+00   0.00000000000000E+00
     -5.72641754895230E-04  -1.09652113525487E-15  -5.72641754896326E-04  -2.65887812881938E-16
      5.33333333333333E-01
     -4.53333333333333E-01  -4.53333333333333E-01   0.00000000000000E+00   0.00000000000000E+00   0.00000000000000E+00
      0.00000000000000E+00   0.00000000000000E+00   8.16878710227131E-17   0.00000000000000E+00   0.00000000000000E+00
      0.00000000000000E+00   0.00000000000000E+00   6.17508087135428E-04  -3.02218900562785E-13   6.17508086833209E-04
      6.42145439771436E-17  -8.50000000000000E-01  -8.50000000000000E-01   0.00000000000000E+00   0.00000000000000E+00
     -6.17508087134972E-04  -2.73272017427324E-15  -6.17508087137704E-04  -2.60593093955233E-16
      5.50000000000000E-01
     -4.67500000000000E-01  -4.67500000000000E-01   0.00000000000000E+00   0.00000000000000E+00   0.00000000000000E+00
      0.00000000000000E+00   0.00000000000000E+00   6.30011282962997E-17   0.00000000000000E+00   0.00000000000000E+00
      0.00000000000000E+00   0.00000000000000E+00   6.63094502727153E-04  -2.54475884466532E-13   6.63094502472677E-04
      6.91007377452620E-17  -8.50000000000000E-01  -8.50000000000000E-01   0.00000000000000E+00   0.00000000000000E+00
     -6.63094502726425E-04  -7.46489311471440E-15  -6.63094502733890E-04  -2.55294342654526E-16
      5.66666666666667E-01
     -4.81666666666667E-01  -4.81666666666667E-01   0.00000000000000E+00   0.00000000000000E+00   0.00000000000000E+00
      0.00000000000000E+00   0.00000000000000E+00   4.41424884297320E-17   0.00000000000000E+00   0.00000000000000E+00
      0.00000000000000E+00   0.00000000000000E+00   7.09396751231758E-04  -2.16643962255925E-13   7.09396751015114E-04
      7.39693225845036E-17  -8.50000000000000E-01  -8.50000000000000E-01   0.00000000000000E+00   0.00000000000000E+00
     -7.09396751231558E-04  -1.12208154697662E-16  -7.09396751231671E-04  -2.49987331450051E-16
      5.83333333333333E-01
     -4.95833333333333E-01  -4.95833333333333E-01   0.00000000000000E+00   0.00000000000000E+00   0.00000000000000E+00
      0.00000000000000E+00   0.00000000000000E+00   2.51545752263809E-17   0.00000000000000E+00   0.00000000000000E+00
      0.00000000000000E+00   0.00000000000000E+00   7.56452457562996E-04  -1.86540266983592E-13   7.56452457376455E-04
      7.88222637755320E-17  -8.50000000000000E-01  -8.50000000000000E-01   0.00000000000000E+00   0.00000000000000E+00
     -7.56452457562994E-04   6.20783192466878E-16  -7.56452457562373E-04  -2.44667016004135E-16
      6.00000000000000E-01
     -5.10000000000000E-01  -5.10000000000000E-01   0.00000000000000E+00   0.00000000000000E+00   0.00000000000000E+00
      0.00000000000000E+00   0.00000000000000E+00   6.04747462697506E-18   0.00000000000000E+00   0.00000000000000E+00
      0.00000000000000E+00   0.00000000000000E+00   8.04211624036912E-04  -1.57297414666432E-13   8.04211623879615E-04
      8.36610714847241E-17  -8.50000000000000E-01  -8.50000000000000E-01   0.00000000000000E+00   0.00000000000000E+00
     -8.04211624036768E-04   3.38875422533174E-16  -8.04211624036429E-04  -2.39333645814571E-16
      6.16666666666667E-01
     -5.24166666666667E-01  -5.24166666666667E-01   0.00000000000000E+00   0.00000000000000E+00   0.00000000000000E+00
      0.00000000000000E+00   0.00000000000000E+00  -1.32195416808075E-17   0.00000000000000E+00   0.00000000000000E+00
      0.00000000000000E+00   0.00000000000000E+00   8.52475315171167E-04  -1.33688941375846E-13   8.52475315037478E-04
      8.84866781386954E-17  -8.50000000000000E-01  -8.50000000000000E-01   0.00000000000000E+00   0.00000000000000E+00
     -8.52475315167489E-04   2.05757421193013E-16  -8.52475315167284E-04  -2.33997409347468E-16
      6.33333333333334E-01
     -5.38333333333334E-01  -5.38333333333334E-01   0.00000000000000E+00   0.00000000000000E+00   0.00000000000000E+00
      0.00000000000000E+00   0.00000000000000E+00  -3.26248077224032E-17   0.00000000000000E+00   0.00000000000000E+00
      0.00000000000000E+00   0.00000000000000E+00   9.01229135602215E-04  -1.08598590651379E-13   9.01229135493617E-04
      9.33005129875127E-17  -8.50000000000000E-01  -8.50000000000000E-01   0.00000000000000E+00   0.00000000000000E+00
     -9.01229135601680E-04  -1.87225945732599E-16  -9.01229135601867E-04  -2.28654724147493E-16
      6.50000000000000E-01
     -5.52500000000000E-01  -5.52500000000000E-01   0.00000000000000E+00   0.00000000000000E+00   0.00000000000000E+00
      0.00000000000000E+00   0.00000000000000E+00  -5.21524727155623E-17   0.00000000000000E+00   0.00000000000000E+00
      0.00000000000000E+00   0.00000000000000E+00   9.50445669316165E-04  -9.08573750263700E-14   9.50445669225308E-04
      9.81037709156856E-17  -8.50000000000000E-01  -8.50000000000000E-01   0.00000000000000E+00   0.00000000000000E+00
     -9.50445669315791E-04  -5.36266073674923E-17  -9.50445669315844E-04  -2.23303421044337E-16
      6.66666666666667E-01
     -5.66666666666667E-01  -5.66666666666667E-01   0.00000000000000E+00   0.00000000000000E+00   0.00000000000000E+00
      0.00000000000000E+00   0.00000000000000E+00  -7.17841009471801E-17   0.00000000000000E+00   0.00000000000000E+00
      0.00000000000000E+00   0.00000000000000E+00   1.00011495899417E-03  -7.58897330556264E-14   1.00011495891828E-03
      1.02897680433596E-16  -8.50000000000000E-01  -8.50000000000000E-01   0.00000000000000E+00   0.00000000000000E+00
     -1.00011495899393E-03   2.11929860689377E-17  -1.00011495899391E-03  -2.17940860411831E-16
      6.83333333333334E-01
     -5.80833333333334E-01  -5.80833333333334E-01   0.00000000000000E+00   0.00000000000000E+00   0.00000000000000E+00
      0.00000000000000E+00   0.00000000000000E+00  -9.14992146569358E-17   0.00000000000000E+00   0.00000000000000E+00
      0.00000000000000E+00   0.00000000000000E+00   1.05024101026084E-03  -6.37457910353564E-14   1.05024101019710E-03
      1.07683391110761E-16  -8.50000000000000E-01  -8.50000000000000E-01   0.00000000000000E+00   0.00000000000000E+00
     -1.05024101026076E-03   4.48322967823058E-16  -1.05024101026031E-03  -2.12563915457161E-16
      7.00000000000001E-01
     -5.95000000000000E-01  -5.95000000000000E-01   0.00000000000000E+00   0.00000000000000E+00   0.00000000000000E+00
      0.00000000000000E+00   0.00000000000000E+00  -1.11325791958140E-16   0.00000000000000E+00   0.00000000000000E+00
      0.00000000000000E+00   0.00000000000000E+00   1.10070102130864E-03  -5.23596716899496E-14   1.10070102125628E-03
      1.12461585668906E-16  -8.50000000000000E-01  -8.50000000000000E-01   0.00000000000000E+00   0.00000000000000E+00
     -1.10070102130726E-03   7.21863967705499E-16  -1.10070102130654E-03  -2.07183538837634E-16
      7.16666666666667E-01
     -6.09166666666667E-01  -6.09166666666667E-01   0.00000000000000E+00   0.00000000000000E+00   0.00000000000000E+00
      0.00000000000000E+00   0.00000000000000E+00  -1.31259433917991E-16   0.00000000000000E+00   0.00000000000000E+00
      0.00000000000000E+00   0.00000000000000E+00   1.15145700743686E-03  -4.28809989540895E-14   1.15145700739398E-03
      1.17233105026756E-16  -8.50000000000000E-01  -8.50000000000000E-01   0.00000000000000E+00   0.00000000000000E+00
     -1.15145700743615E-03  -2.96319566739435E-16  -1.15145700743645E-03  -2.01799477367224E-16
      7.33333333333334E-01
     -6.23333333333334E-01  -6.23333333333334E-01   0.00000000000000E+00   0.00000000000000E+00   0.00000000000000E+00
      0.00000000000000E+00   0.00000000000000E+00  -1.51287235684014E-16   0.00000000000000E+00   0.00000000000000E+00
      0.00000000000000E+00   0.00000000000000E+00   1.20249749694606E-03  -3.54081071505782E-14   1.20249749691065E-03
      1.21998776977379E-16  -8.50000000000000E-01  -8.50000000000000E-01   0.00000000000000E+00   0.00000000000000E+00
     -1.20249749694569E-03  -1.21367715142954E-16  -1.20249749694581E-03  -1.96408909775554E-16
      7.50000000000001E-01
     -6.37500000000001E-01  -6.37500000000001E-01   0.00000000000000E+00   0.00000000000000E+00   0.00000000000000E+00
      0.00000000000000E+00   0.00000000000000E+00  -1.71400046057472E-16   0.00000000000000E+00   0.00000000000000E+00
      0.00000000000000E+00   0.00000000000000E+00   1.25380414882668E-03  -2.93084486437803E-14   1.25380414879737E-03
      1.26759332716062E-16  -8.50000000000000E-01  -8.50000000000000E-01   0.00000000000000E+00   0.00000000000000E+00
     -1.25380414882637E-03  -1.43056195208160E-16  -1.25380414882652E-03  -1.91010311061325E-16
      7.66666666666667E-01
     -6.51666666666667E-01  -6.51666666666667E-01   0.00000000000000E+00   0.00000000000000E+00   0.00000000000000E+00
      0.00000000000000E+00   0.00000000000000E+00  -1.91590416296029E-16   0.00000000000000E+00   0.00000000000000E+00
      0.00000000000000E+00   0.00000000000000E+00   1.30535693253939E-03  -2.46323868591736E-14   1.30535693251476E-03
      1.31515428244610E-16  -8.50000000000000E-01  -8.50000000000000E-01   0.00000000000000E+00   0.00000000000000E+00
     -1.30535693253886E-03  -6.23756156444485E-17  -1.30535693253893E-03  -1.85602618036878E-16
      7.83333333333334E-01
     -6.65833333333334E-01  -6.65833333333334E-01   0.00000000000000E+00   0.00000000000000E+00   0.00000000000000E+00
      0.00000000000000E+00   0.00000000000000E+00  -2.11847672977227E-16   0.00000000000000E+00   0.00000000000000E+00
      0.00000000000000E+00   0.00000000000000E+00   1.35714725420392E-03  -2.04765159073058E-14   1.35714725418344E-03
      1.36267678843561E-16  -8.50000000000000E-01  -8.50000000000000E-01   0.00000000000000E+00   0.00000000000000E+00
     -1.35714725420342E-03  -9.44269987173108E-17  -1.35714725420351E-03  -1.80183698985323E-16
      8.00000000000001E-01
     -6.80000000000001E-01  -6.80000000000001E-01   0.00000000000000E+00   0.00000000000000E+00   0.00000000000000E+00
      0.00000000000000E+00   0.00000000000000E+00  -2.32169023285672E-16   0.00000000000000E+00   0.00000000000000E+00