DF-ISE text

Info {
  version   = 1.0
  type      = xyplot
  datasets  = [
    "time"
    "gate OuterVoltage" "gate InnerVoltage" "gate QuasiFermiPotential" "gate DisplacementCurrent" "gate eCurrent"
    "gate hCurrent" "gate TotalCurrent" "gate Charge" "source OuterVoltage" "source InnerVoltage"
    "source QuasiFermiPotential" "source DisplacementCurrent" "source eCurrent" "source hCurrent" "source TotalCurrent"
    "source Charge" "drain OuterVoltage" "drain InnerVoltage" "drain QuasiFermiPotential" "drain DisplacementCurrent"
    "drain eCurrent" "drain hCurrent" "drain TotalCurrent" "drain Charge" ]
  functions = [
    Time
    OuterVoltage InnerVoltage QuasiFermiPotential DisplacementCurrent eCurrent
    hCurrent TotalCurrent Charge OuterVoltage InnerVoltage
    QuasiFermiPotential DisplacementCurrent eCurrent hCurrent TotalCurrent
    Charge OuterVoltage InnerVoltage QuasiFermiPotential DisplacementCurrent
    eCurrent hCurrent TotalCurrent Charge ]
}

Data {
      0.00000000000000E+00
      0.00000000000000E+00   0.00000000000000E+00   0.00000000000000E+00   0.00000000000000E+00   0.00000000000000E+00
      0.00000000000000E+00   0.00000000000000E+00   2.12546478513111E-16   0.00000000000000E+00   0.00000000000000E+00
      0.00000000000000E+00   0.00000000000000E+00   4.14381760134241E-08  -1.12859563422348E-17   4.14381760021381E-08
     -9.71734140222068E-17  -5.00000000000000E-02  -5.00000000000000E-02   0.00000000000000E+00   0.00000000000000E+00
     -4.14381758514630E-08  -1.50762193656197E-16  -4.14381760022252E-08  -1.16621400655813E-16
      1.66666666666667E-02
     -1.50000000000000E-02  -1.50000000000000E-02   0.00000000000000E+00   0.00000000000000E+00   0.00000000000000E+00
      0.00000000000000E+00   0.00000000000000E+00   2.01080474744994E-16   0.00000000000000E+00   0.00000000000000E+00
      0.00000000000000E+00   0.00000000000000E+00   7.07539384412148E-08  -7.10913560074564E-13   7.07532275276547E-08
     -9.14295923605122E-17  -5.00000000000000E-02  -5.00000000000000E-02   0.00000000000000E+00   0.00000000000000E+00
     -7.07539406284715E-08  -9.57893441979283E-14  -7.07540364178157E-08  -1.10935211898686E-16
      3.33333333333333E-02
     -3.00000000000000E-02  -3.00000000000000E-02   0.00000000000000E+00   0.00000000000000E+00   0.00000000000000E+00
      0.00000000000000E+00   0.00000000000000E+00   1.89550300748940E-16   0.00000000000000E+00   0.00000000000000E+00
      0.00000000000000E+00   0.00000000000000E+00   1.20642730377988E-07   7.43979762198336E-17   1.20642730452386E-07
     -8.56614418972457E-17  -5.00000000000000E-02  -5.00000000000000E-02   0.00000000000000E+00   0.00000000000000E+00
     -1.20642730388314E-07  -6.42426608535175E-17  -1.20642730452556E-07  -1.05225473091694E-16
      5.00000000000000E-02
     -4.50000000000000E-02  -4.50000000000000E-02   0.00000000000000E+00   0.00000000000000E+00   0.00000000000000E+00
      0.00000000000000E+00   0.00000000000000E+00   1.77947199852355E-16   0.00000000000000E+00   0.00000000000000E+00
      0.00000000000000E+00   0.00000000000000E+00   2.05359587897884E-07   5.33865515367502E-17   2.05359587951270E-07
     -7.98689767102244E-17  -5.00000000000000E-02  -5.00000000000000E-02   0.00000000000000E+00   0.00000000000000E+00
     -2.05359587900845E-07  -5.02759428433254E-17  -2.05359587951121E-07  -9.94911473422878E-17
      6.66666666666667E-02
     -6.00000000000000E-02  -6.00000000000000E-02   0.00000000000000E+00   0.00000000000000E+00   0.00000000000000E+00
      0.00000000000000E+00   0.00000000000000E+00   1.66259243429724E-16   0.00000000000000E+00   0.00000000000000E+00
      0.00000000000000E+00   0.00000000000000E+00   3.48817166375120E-07  -9.60875311377925E-15   3.48817156766367E-07
     -7.40527915196797E-17  -5.00000000000000E-02  -5.00000000000000E-02   0.00000000000000E+00   0.00000000000000E+00
     -3.48817157776602E-07  -2.74811265759372E-15  -3.48817160524714E-07  -9.37312673115424E-17
      8.33333333333333E-02
     -7.50000000000000E-02  -7.50000000000000E-02   0.00000000000000E+00   0.00000000000000E+00   0.00000000000000E+00
      0.00000000000000E+00   0.00000000000000E+00   1.54469800672942E-16   0.00000000000000E+00   0.00000000000000E+00
      0.00000000000000E+00   0.00000000000000E+00   5.90840611132937E-07  -2.96209054789330E-15   5.90840608170846E-07
     -6.82143354858774E-17  -5.00000000000000E-02  -5.00000000000000E-02   0.00000000000000E+00   0.00000000000000E+00
     -5.90840613044222E-07   2.21293036989058E-15  -5.90840610831291E-07  -8.79450338120055E-17
      1.00000000000000E-01
     -9.00000000000000E-02  -9.00000000000000E-02   0.00000000000000E+00   0.00000000000000E+00   0.00000000000000E+00
      0.00000000000000E+00   0.00000000000000E+00   1.42555284923439E-16   0.00000000000000E+00   0.00000000000000E+00
      0.00000000000000E+00   0.00000000000000E+00   9.97073732738696E-07  -5.15923748292602E-15   9.97073727579458E-07
     -6.23562712970347E-17  -5.00000000000000E-02  -5.00000000000000E-02   0.00000000000000E+00   0.00000000000000E+00
     -9.97073735921707E-07   3.33273562726422E-15  -9.97073732588971E-07  -8.21319728166354E-17
      1.16666666666667E-01
     -1.05000000000000E-01  -1.05000000000000E-01   0.00000000000000E+00   0.00000000000000E+00   0.00000000000000E+00
      0.00000000000000E+00   0.00000000000000E+00   1.30481956513236E-16   0.00000000000000E+00   0.00000000000000E+00
      0.00000000000000E+00   0.00000000000000E+00   1.67410296351174E-06  -3.27951851418054E-14   1.67410293071656E-06
     -5.64829159099487E-17  -5.00000000000000E-02  -5.00000000000000E-02   0.00000000000000E+00   0.00000000000000E+00
     -1.67410296379662E-06   2.15461986669360E-15  -1.67410296164200E-06  -7.62921781220458E-17
      1.33333333333333E-01
     -1.20000000000000E-01  -1.20000000000000E-01   0.00000000000000E+00   0.00000000000000E+00   0.00000000000000E+00
      0.00000000000000E+00   0.00000000000000E+00   1.18201678585818E-16   0.00000000000000E+00   0.00000000000000E+00
      0.00000000000000E+00   0.00000000000000E+00   2.79125631525705E-06  -1.86075976623235E-13   2.79125612918107E-06
     -5.06007201839902E-17  -5.00000000000000E-02  -5.00000000000000E-02   0.00000000000000E+00   0.00000000000000E+00
     -2.79125631527552E-06   8.82552353407540E-15  -2.79125630645000E-06  -7.04266701237272E-17
      1.50000000000000E-01
     -1.35000000000000E-01  -1.35000000000000E-01   0.00000000000000E+00   0.00000000000000E+00   0.00000000000000E+00
      0.00000000000000E+00   0.00000000000000E+00   1.05646921945165E-16   0.00000000000000E+00   0.00000000000000E+00
      0.00000000000000E+00   0.00000000000000E+00   4.60928702379369E-06  -8.45622859488067E-13   4.60928617817083E-06
     -4.47186715688006E-17  -5.00000000000000E-02  -5.00000000000000E-02   0.00000000000000E+00   0.00000000000000E+00
     -4.60928702415557E-06   5.71460120506529E-14  -4.60928696700956E-06  -6.45378904485450E-17
      1.66666666666667E-01
     -1.50000000000000E-01  -1.50000000000000E-01   0.00000000000000E+00   0.00000000000000E+00   0.00000000000000E+00
      0.00000000000000E+00   0.00000000000000E+00   9.27261420436770E-17   0.00000000000000E+00   0.00000000000000E+00
      0.00000000000000E+00   0.00000000000000E+00   7.51316179956970E-06  -3.09606248007849E-12   7.51315870350722E-06
     -3.88484030798668E-17  -5.00000000000000E-02  -5.00000000000000E-02   0.00000000000000E+00   0.00000000000000E+00
     -7.51316179929308E-06   3.01717661822397E-13  -7.51316149757542E-06  -5.86303093855187E-17
      1.83333333333333E-01
     -1.65000000000000E-01  -1.65000000000000E-01   0.00000000000000E+00   0.00000000000000E+00   0.00000000000000E+00
      0.00000000000000E+00   0.00000000000000E+00   7.93215713880662E-17   0.00000000000000E+00   0.00000000000000E+00
      0.00000000000000E+00   0.00000000000000E+00   1.20445374245905E-05  -9.11569582774749E-12   1.20445283088947E-05
     -3.30037306544783E-17  -5.00000000000000E-02  -5.00000000000000E-02   0.00000000000000E+00   0.00000000000000E+00
     -1.20445374218871E-05   1.42115643322772E-12  -1.20445360007306E-05  -5.27110498728661E-17
      2.00000000000000E-01
     -1.80000000000000E-01  -1.80000000000000E-01   0.00000000000000E+00   0.00000000000000E+00   0.00000000000000E+00
      0.00000000000000E+00   0.00000000000000E+00   6.53025340337854E-17   0.00000000000000E+00   0.00000000000000E+00
      0.00000000000000E+00   0.00000000000000E+00   1.87786806324841E-05  -2.52787203341046E-11   1.87786553537638E-05
     -2.71994331344296E-17  -5.00000000000000E-02  -5.00000000000000E-02   0.00000000000000E+00   0.00000000000000E+00
     -1.87786806011525E-05   1.66631488940545E-12  -1.87786789348376E-05  -4.67892120713946E-17
      2.16666666666667E-01
     -1.95000000000000E-01  -1.95000000000000E-01   0.00000000000000E+00   0.00000000000000E+00   0.00000000000000E+00
      0.00000000000000E+00   0.00000000000000E+00   5.05643189409722E-17   0.00000000000000E+00   0.00000000000000E+00
      0.00000000000000E+00   0.00000000000000E+00   2.79771628298187E-05  -4.90444339511491E-11   2.79771137853847E-05
     -2.14486053355692E-17  -5.00000000000000E-02  -5.00000000000000E-02   0.00000000000000E+00   0.00000000000000E+00
     -2.79771627364994E-05   2.27930944379174E-12  -2.79771604571900E-05  -4.08728980079535E-17
      2.33333333333333E-01
     -2.10000000000000E-01  -2.10000000000000E-01   0.00000000000000E+00   0.00000000000000E+00   0.00000000000000E+00
      0.00000000000000E+00   0.00000000000000E+00   3.50344214285245E-17   0.00000000000000E+00   0.00000000000000E+00
      0.00000000000000E+00   0.00000000000000E+00   3.98859833647563E-05  -4.51494000115055E-11   3.98859382153563E-05
     -1.57542192635093E-17  -5.00000000000000E-02  -5.00000000000000E-02   0.00000000000000E+00   0.00000000000000E+00
     -3.98859834783584E-05   8.19174732068914E-12  -3.98859752866111E-05  -3.49708031842245E-17
      2.50000000000000E-01
     -2.25000000000000E-01  -2.25000000000000E-01   0.00000000000000E+00   0.00000000000000E+00   0.00000000000000E+00
      0.00000000000000E+00   0.00000000000000E+00   1.86155480303735E-17   0.00000000000000E+00   0.00000000000000E+00
      0.00000000000000E+00   0.00000000000000E+00   5.47308050867441E-05  -3.33619682022604E-11   5.47307717247759E-05
     -1.01212549581736E-17  -5.00000000000000E-02  -5.00000000000000E-02   0.00000000000000E+00   0.00000000000000E+00
     -5.47308050389127E-05   2.77768093499680E-11  -5.47307772621033E-05  -2.90927949514758E-17
      2.66666666666667E-01
     -2.40000000000000E-01  -2.40000000000000E-01   0.00000000000000E+00   0.00000000000000E+00   0.00000000000000E+00
      0.00000000000000E+00   0.00000000000000E+00   1.23257640869795E-18   0.00000000000000E+00   0.00000000000000E+00
      0.00000000000000E+00   0.00000000000000E+00   7.24792058108109E-05  -4.45922349387462E-11   7.24791612185760E-05
     -4.55379999587537E-18  -5.00000000000000E-02  -5.00000000000000E-02   0.00000000000000E+00   0.00000000000000E+00
     -7.24792058083822E-05   7.72655661019443E-11  -7.24791285428161E-05  -2.32487598031111E-17
      2.83333333333333E-01
     -2.55000000000000E-01  -2.55000000000000E-01   0.00000000000000E+00   0.00000000000000E+00   0.00000000000000E+00
      0.00000000000000E+00   0.00000000000000E+00  -1.71676662418487E-17   0.00000000000000E+00   0.00000000000000E+00
      0.00000000000000E+00   0.00000000000000E+00   9.27362628313233E-05  -3.20293653233220E-11   9.27362308019580E-05
      9.49933136522024E-19  -5.00000000000000E-02  -5.00000000000000E-02   0.00000000000000E+00   0.00000000000000E+00
     -9.27362628395183E-05   1.13538118797332E-10  -9.27361493013995E-05  -1.74579855085481E-17
      3.00000000000000E-01
     -2.70000000000000E-01  -2.70000000000000E-01   0.00000000000000E+00   0.00000000000000E+00   0.00000000000000E+00
      0.00000000000000E+00   0.00000000000000E+00  -3.65485273331511E-17   0.00000000000000E+00   0.00000000000000E+00
      0.00000000000000E+00   0.00000000000000E+00   1.15130581508502E-04  -2.22991444159838E-11   1.15130559209357E-04
      6.39383833195049E-18  -5.00000000000000E-02  -5.00000000000000E-02   0.00000000000000E+00   0.00000000000000E+00
     -1.15130581673230E-04   7.53574734373523E-11  -1.15130506315757E-04  -1.17155782302340E-17
      3.16666666666667E-01
     -2.85000000000000E-01  -2.85000000000000E-01   0.00000000000000E+00   0.00000000000000E+00   0.00000000000000E+00
      0.00000000000000E+00   0.00000000000000E+00  -5.68541659177053E-17   0.00000000000000E+00   0.00000000000000E+00
      0.00000000000000E+00   0.00000000000000E+00   1.39269563121409E-04  -1.75976747922109E-11   1.39269545523734E-04
      1.17826740788115E-17  -5.00000000000000E-02  -5.00000000000000E-02   0.00000000000000E+00   0.00000000000000E+00
     -1.39269563125393E-04   6.71638380970682E-11  -1.39269495961555E-04  -6.01497831824455E-18
      3.33333333333333E-01
     -3.00000000000000E-01  -3.00000000000000E-01   0.00000000000000E+00   0.00000000000000E+00   0.00000000000000E+00
      0.00000000000000E+00   0.00000000000000E+00  -7.80346199642675E-17   0.00000000000000E+00   0.00000000000000E+00
      0.00000000000000E+00   0.00000000000000E+00   1.64740215905966E-04  -1.29709716106317E-11   1.64740202934994E-04
      1.71213364301059E-17  -5.00000000000000E-02  -5.00000000000000E-02   0.00000000000000E+00   0.00000000000000E+00
     -1.64740215917385E-04   4.37172388554266E-11  -1.64740172200146E-04  -3.53050438214926E-19
      3.50000000000000E-01
     -3.15000000000000E-01  -3.15000000000000E-01   0.00000000000000E+00   0.00000000000000E+00   0.00000000000000E+00
      0.00000000000000E+00   0.00000000000000E+00  -1.00032380066502E-16   0.00000000000000E+00   0.00000000000000E+00
      0.00000000000000E+00   0.00000000000000E+00   1.91182566890275E-04  -9.72870726166073E-12   1.91182557161568E-04
      2.24147557793070E-17  -5.00000000000000E-02  -5.00000000000000E-02   0.00000000000000E+00   0.00000000000000E+00
     -1.91182566912384E-04   2.94672233565428E-11  -1.91182537445161E-04   5.27458312254255E-18
      3.66666666666667E-01
     -3.30000000000000E-01  -3.30000000000000E-01   0.00000000000000E+00   0.00000000000000E+00   0.00000000000000E+00
      0.00000000000000E+00   0.00000000000000E+00  -1.22788411464074E-16   0.00000000000000E+00   0.00000000000000E+00
      0.00000000000000E+00   0.00000000000000E+00   2.18292128199210E-04  -7.38169706962794E-12   2.18292120817513E-04
      2.76677280869795E-17  -5.00000000000000E-02  -5.00000000000000E-02   0.00000000000000E+00   0.00000000000000E+00
     -2.18292128205346E-04   1.98107682667110E-11  -2.18292108394578E-04   1.08727128718797E-17
      3.83333333333333E-01
     -3.45000000000000E-01  -3.45000000000000E-01   0.00000000000000E+00   0.00000000000000E+00   0.00000000000000E+00
      0.00000000000000E+00   0.00000000000000E+00  -1.46244901453623E-16   0.00000000000000E+00   0.00000000000000E+00
      0.00000000000000E+00   0.00000000000000E+00   2.45814404291184E-04  -5.71970048430931E-12   2.45814398571484E-04
      3.28847809489103E-17  -5.00000000000000E-02  -5.00000000000000E-02   0.00000000000000E+00   0.00000000000000E+00
     -2.45814404270320E-04   1.36023121452500E-11  -2.45814390668008E-04   1.64459422113666E-17
      4.00000000000000E-01
     -3.60000000000000E-01  -3.60000000000000E-01   0.00000000000000E+00   0.00000000000000E+00   0.00000000000000E+00
      0.00000000000000E+00   0.00000000000000E+00  -1.70347454461623E-16   0.00000000000000E+00   0.00000000000000E+00
      0.00000000000000E+00   0.00000000000000E+00   2.73536416863112E-04  -4.50681352768158E-12   2.73536412356299E-04
      3.80701759180379E-17  -5.00000000000000E-02  -5.00000000000000E-02   0.00000000000000E+00   0.00000000000000E+00
     -2.73536416840331E-04   9.69287821908816E-12  -2.73536407147453E-04   2.19986308750980E-17
      4.16666666666667E-01
     -3.75000000000000E-01  -3.75000000000000E-01   0.00000000000000E+00   0.00000000000000E+00   0.00000000000000E+00
      0.00000000000000E+00   0.00000000000000E+00  -1.95045213304558E-16   0.00000000000000E+00   0.00000000000000E+00
      0.00000000000000E+00   0.00000000000000E+00   3.01279157699579E-04  -3.64738661515941E-12   3.01279154052193E-04
      4.32278411359550E-17  -5.00000000000000E-02  -5.00000000000000E-02   0.00000000000000E+00   0.00000000000000E+00
     -3.01279157669091E-04   7.24894758663864E-12  -3.01279150420144E-04   2.75346644333083E-17
      4.33333333333333E-01
     -3.90000000000000E-01  -3.90000000000000E-01   0.00000000000000E+00   0.00000000000000E+00   0.00000000000000E+00
      0.00000000000000E+00   0.00000000000000E+00  -2.20291450739245E-16   0.00000000000000E+00   0.00000000000000E+00
      0.00000000000000E+00   0.00000000000000E+00   3.28890127337958E-04  -3.01255982039695E-12   3.28890124325398E-04
      4.83613923188013E-17  -5.00000000000000E-02  -5.00000000000000E-02   0.00000000000000E+00   0.00000000000000E+00
     -3.28890127299384E-04   5.66588172215804E-12  -3.28890121633502E-04   3.30575729006288E-17
      4.50000000000000E-01
     -4.05000000000000E-01  -4.05000000000000E-01   0.00000000000000E+00   0.00000000000000E+00   0.00000000000000E+00
      0.00000000000000E+00   0.00000000000000E+00  -2.46043187196576E-16   0.00000000000000E+00   0.00000000000000E+00
      0.00000000000000E+00   0.00000000000000E+00   3.56240878452476E-04  -2.52906864326566E-12   3.56240875923407E-04
      5.34741634574750E-17  -5.00000000000000E-02  -5.00000000000000E-02   0.00000000000000E+00   0.00000000000000E+00
     -3.56240878429734E-04   4.57064447422666E-12  -3.56240873859090E-04   3.85704065291249E-17
      4.66666666666667E-01
     -4.20000000000000E-01  -4.20000000000000E-01   0.00000000000000E+00   0.00000000000000E+00   0.00000000000000E+00
      0.00000000000000E+00   0.00000000000000E+00  -2.72261057844936E-16   0.00000000000000E+00   0.00000000000000E+00
      0.00000000000000E+00   0.00000000000000E+00   3.83219743163195E-04  -2.02910484166773E-12   3.83219741134090E-04
      5.85691576416601E-17  -5.00000000000000E-02  -5.00000000000000E-02   0.00000000000000E+00   0.00000000000000E+00
     -3.83219743068979E-04   3.60921712262207E-12  -3.83219739459762E-04   4.40758890781551E-17
      4.83333333333333E-01
     -4.35000000000000E-01  -4.35000000000000E-01   0.00000000000000E+00   0.00000000000000E+00   0.00000000000000E+00
      0.00000000000000E+00   0.00000000000000E+00  -2.98909056230680E-16   0.00000000000000E+00   0.00000000000000E+00
      0.00000000000000E+00   0.00000000000000E+00   4.09731514928882E-04  -1.82471130309188E-12   4.09731513104170E-04
      6.36491162275512E-17  -5.00000000000000E-02  -5.00000000000000E-02   0.00000000000000E+00   0.00000000000000E+00
     -4.09731514928018E-04   3.16390702550915E-12  -4.09731511764111E-04   4.95763652518504E-17
      5.00000000000000E-01
     -4.50000000000000E-01  -4.50000000000000E-01   0.00000000000000E+00   0.00000000000000E+00   0.00000000000000E+00
      0.00000000000000E+00   0.00000000000000E+00  -3.25954213223533E-16   0.00000000000000E+00   0.00000000000000E+00
      0.00000000000000E+00   0.00000000000000E+00   4.35694614469148E-04  -1.56745485673611E-12   4.35694612901693E-04
      6.87165179243311E-17  -5.00000000000000E-02  -5.00000000000000E-02   0.00000000000000E+00   0.00000000000000E+00
     -4.35694614466330E-04   2.67276783129986E-12  -4.35694611793562E-04   5.50738404679350E-17
      5.16666666666667E-01
     -4.65000000000000E-01  -4.65000000000000E-01   0.00000000000000E+00   0.00000000000000E+00   0.00000000000000E+00
      0.00000000000000E+00   0.00000000000000E+00  -3.53366489003248E-16   0.00000000000000E+00   0.00000000000000E+00
      0.00000000000000E+00   0.00000000000000E+00   4.61037390491816E-04  -1.34869292308935E-12   4.61037389143123E-04
      7.37735871864560E-17  -5.00000000000000E-02  -5.00000000000000E-02   0.00000000000000E+00   0.00000000000000E+00
     -4.61037390484397E-04   2.26670645511907E-12  -4.61037388217691E-04   6.05700662286219E-17
      5.33333333333333E-01
     -4.80000000000000E-01  -4.80000000000000E-01   0.00000000000000E+00   0.00000000000000E+00   0.00000000000000E+00
      0.00000000000000E+00   0.00000000000000E+00  -3.81118365284743E-16   0.00000000000000E+00   0.00000000000000E+00
      0.00000000000000E+00   0.00000000000000E+00   4.85697976056886E-04  -1.16084556771831E-12   4.85697974896040E-04
      7.88223203390006E-17  -5.00000000000000E-02  -5.00000000000000E-02   0.00000000000000E+00   0.00000000000000E+00
     -4.85697976052369E-04   1.93253390413494E-12  -4.85697974119835E-04   6.60665031742149E-17
      5.50000000000000E-01
     -4.95000000000000E-01  -4.95000000000000E-01   0.00000000000000E+00   0.00000000000000E+00   0.00000000000000E+00
      0.00000000000000E+00   0.00000000000000E+00  -4.09184734548045E-16   0.00000000000000E+00   0.00000000000000E+00
      0.00000000000000E+00   0.00000000000000E+00   5.09621955748449E-04  -9.98676661356653E-13   5.09621954749772E-04
      8.38645031918847E-17  -5.00000000000000E-02  -5.00000000000000E-02   0.00000000000000E+00   0.00000000000000E+00
     -5.09621955743326E-04   1.65202271676772E-12  -5.09621954091303E-04   7.15643813247953E-17
      5.66666666666667E-01
     -5.10000000000000E-01  -5.10000000000000E-01   0.00000000000000E+00   0.00000000000000E+00   0.00000000000000E+00
      0.00000000000000E+00   0.00000000000000E+00  -4.37542667716678E-16   0.00000000000000E+00   0.00000000000000E+00
      0.00000000000000E+00   0.00000000000000E+00   5.32760681326768E-04  -8.58197718002952E-13   5.32760680468570E-04
      8.89017229493090E-17  -5.00000000000000E-02  -5.00000000000000E-02   0.00000000000000E+00   0.00000000000000E+00
     -5.32760681326336E-04   1.41677567839929E-12  -5.32760679909561E-04   7.70647234928529E-17
      5.83333333333333E-01
     -5.25000000000000E-01  -5.25000000000000E-01   0.00000000000000E+00   0.00000000000000E+00   0.00000000000000E+00
      0.00000000000000E+00   0.00000000000000E+00  -4.66171253304347E-16   0.00000000000000E+00   0.00000000000000E+00
      0.00000000000000E+00   0.00000000000000E+00   5.55070439664771E-04  -7.36490010806351E-13   5.55070438928281E-04
      9.39353925674156E-17  -5.00000000000000E-02  -5.00000000000000E-02   0.00000000000000E+00   0.00000000000000E+00
     -5.55070439666407E-04   1.21949851042447E-12  -5.55070438446908E-04   8.25683664356107E-17
      6.00000000000000E-01
     -5.40000000000000E-01  -5.40000000000000E-01   0.00000000000000E+00   0.00000000000000E+00   0.00000000000000E+00
      0.00000000000000E+00   0.00000000000000E+00  -4.95051443597842E-16   0.00000000000000E+00   0.00000000000000E+00
      0.00000000000000E+00   0.00000000000000E+00   5.76512206036282E-04  -6.32027051946714E-13   5.76512205404255E-04
      9.89667753691470E-17  -5.00000000000000E-02  -5.00000000000000E-02   0.00000000000000E+00   0.00000000000000E+00
     -5.76512206036373E-04   1.05283576638902E-12  -5.76512204983537E-04   8.80759772929963E-17
      6.16666666666667E-01
     -5.55000000000000E-01  -5.55000000000000E-01   0.00000000000000E+00   0.00000000000000E+00   0.00000000000000E+00
      0.00000000000000E+00   0.00000000000000E+00  -5.24165823602390E-16   0.00000000000000E+00   0.00000000000000E+00
      0.00000000000000E+00   0.00000000000000E+00   5.97050545080831E-04  -5.41776837567156E-13   5.97050544539054E-04
      1.03996987297590E-16  -5.00000000000000E-02  -5.00000000000000E-02   0.00000000000000E+00   0.00000000000000E+00
     -5.97050545080776E-04   9.11761943561125E-13  -5.97050544169014E-04   9.35880720259651E-17
      6.33333333333334E-01
     -5.70000000000000E-01  -5.70000000000000E-01   0.00000000000000E+00   0.00000000000000E+00   0.00000000000000E+00
      0.00000000000000E+00   0.00000000000000E+00  -5.53498454345267E-16   0.00000000000000E+00   0.00000000000000E+00
      0.00000000000000E+00   0.00000000000000E+00   6.16653507076996E-04  -4.65139120931735E-13   6.16653506611857E-04
      1.09027011810790E-16  -5.00000000000000E-02  -5.00000000000000E-02   0.00000000000000E+00   0.00000000000000E+00
     -6.16653507077717E-04   7.91460119176349E-13  -6.16653506286256E-04   9.91050314453980E-17
      6.50000000000000E-01
     -5.85000000000000E-01  -5.85000000000000E-01   0.00000000000000E+00   0.00000000000000E+00   0.00000000000000E+00
      0.00000000000000E+00   0.00000000000000E+00  -5.83034756173514E-16   0.00000000000000E+00   0.00000000000000E+00
      0.00000000000000E+00   0.00000000000000E+00   6.35292405874997E-04  -3.98513975352396E-13   6.35292405476484E-04
      1.14057711814640E-16  -5.00000000000000E-02  -5.00000000000000E-02   0.00000000000000E+00   0.00000000000000E+00
     -6.35292405875811E-04   6.87144955558070E-13  -6.35292405188666E-04   1.04627125289961E-16
      6.66666666666667E-01
     -6.00000000000000E-01  -6.00000000000000E-01   0.00000000000000E+00   0.00000000000000E+00   0.00000000000000E+00
      0.00000000000000E+00   0.00000000000000E+00  -6.12761416496004E-16   0.00000000000000E+00   0.00000000000000E+00
      0.00000000000000E+00   0.00000000000000E+00   6.52942066093565E-04  -3.40809763848989E-13   6.52942065752756E-04
      1.19089842920775E-16  -5.00000000000000E-02  -5.00000000000000E-02   0.00000000000000E+00   0.00000000000000E+00
     -6.52942066095281E-04   5.97242029381253E-13  -6.52942065498038E-04   1.10154534434188E-16
      6.83333333333334E-01
     -6.15000000000000E-01  -6.15000000000000E-01   0.00000000000000E+00   0.00000000000000E+00   0.00000000000000E+00
      0.00000000000000E+00   0.00000000000000E+00  -6.42666245732247E-16   0.00000000000000E+00   0.00000000000000E+00
      0.00000000000000E+00   0.00000000000000E+00   6.69581424554504E-04  -2.92665988669312E-13   6.69581424261838E-04
      1.24124059506649E-16  -5.00000000000000E-02  -5.00000000000000E-02   0.00000000000000E+00   0.00000000000000E+00
     -6.69581424554803E-04   5.18087557169075E-13  -6.69581424036716E-04   1.15687363225559E-16
      7.00000000000001E-01
     -6.30000000000000E-01  -6.30000000000000E-01   0.00000000000000E+00   0.00000000000000E+00   0.00000000000000E+00
      0.00000000000000E+00   0.00000000000000E+00  -6.72738077314925E-16   0.00000000000000E+00   0.00000000000000E+00
      0.00000000000000E+00   0.00000000000000E+00   6.85194406318432E-04  -2.51154807642605E-13   6.85194406067277E-04
      1.29160922586792E-16  -5.00000000000000E-02  -5.00000000000000E-02   0.00000000000000E+00   0.00000000000000E+00
     -6.85194406318235E-04   4.48223208955017E-13  -6.85194405870012E-04   1.21225655724149E-16
      7.16666666666667E-01
     -6.45000000000001E-01  -6.45000000000001E-01   0.00000000000000E+00   0.00000000000000E+00   0.00000000000000E+00
      0.00000000000000E+00   0.00000000000000E+00  -7.02966672574751E-16   0.00000000000000E+00   0.00000000000000E+00
      0.00000000000000E+00   0.00000000000000E+00   6.99770939607335E-04  -2.15628539330888E-13   6.99770939391707E-04
      1.34200905524750E-16  -5.00000000000000E-02  -5.00000000000000E-02   0.00000000000000E+00   0.00000000000000E+00
     -6.99770939607363E-04   3.86860092821028E-13  -6.99770939220503E-04   1.26769411047797E-16
      7.33333333333334E-01
     -6.60000000000001E-01  -6.60000000000001E-01   0.00000000000000E+00   0.00000000000000E+00   0.00000000000000E+00
      0.00000000000000E+00   0.00000000000000E+00  -7.33342484351561E-16   0.00000000000000E+00   0.00000000000000E+00
      0.00000000000000E+00   0.00000000000000E+00   7.13309125262450E-04   6.23479756595016E-09   7.13315360060016E-04
      1.39244401591330E-16  -5.00000000000000E-02  -5.00000000000000E-02   0.00000000000000E+00   0.00000000000000E+00
     -7.13309124858822E-04   2.74756685867046E-09  -7.13306377291963E-04   1.32318599287031E-16
      7.50000000000001E-01
     -6.75000000000001E-01  -6.75000000000001E-01   0.00000000000000E+00   0.00000000000000E+00   0.00000000000000E+00
      0.00000000000000E+00   0.00000000000000E+00  -7.63857190480745E-16   0.00000000000000E+00   0.00000000000000E+00
      0.00000000000000E+00   0.00000000000000E+00   7.25811920036269E-04   5.32942338914314E-09   7.25817249459658E-04
      1.44291715583212E-16  -5.00000000000000E-02  -5.00000000000000E-02   0.00000000000000E+00   0.00000000000000E+00
     -7.25811918786294E-04   1.91984437166863E-09  -7.25809998941923E-04   1.37873167917600E-16
      7.66666666666667E-01
     -6.90000000000001E-01  -6.90000000000001E-01   0.00000000000000E+00   0.00000000000000E+00   0.00000000000000E+00
      0.00000000000000E+00   0.00000000000000E+00  -7.94502672889790E-16   0.00000000000000E+00   0.00000000000000E+00
      0.00000000000000E+00   0.00000000000000E+00   7.37294630369785E-04   4.51373740217426E-09   7.37299144107187E-04
      1.49343088372028E-16  -5.00000000000000E-02  -5.00000000000000E-02   0.00000000000000E+00   0.00000000000000E+00
     -7.37294629812531E-04   1.19061373559095E-09  -7.37293439198795E-04   1.43433063189727E-16
      7.83333333333334E-01
     -7.05000000000001E-01  -7.05000000000001E-01   0.00000000000000E+00   0.00000000000000E+00   0.00000000000000E+00
      0.00000000000000E+00   0.00000000000000E+00  -8.25271601747222E-16   0.00000000000000E+00   0.00000000000000E+00
      0.00000000000000E+00   0.00000000000000E+00   7.47780986510239E-04   3.81159880044099E-09   7.47784798109039E-04
      1.54398686947613E-16  -5.00000000000000E-02  -5.00000000000000E-02   0.00000000000000E+00   0.00000000000000E+00
     -7.47780986007129E-04   6.06956135664731E-10  -7.47780379050993E-04   1.48998232031465E-16
      8.00000000000001E-01
     -7.20000000000001E-01  -7.20000000000001E-01   0.00000000000000E+00   0.00000000000000E+00   0.00000000000000E+00
      0.00000000000000E+00   0.00000000000000E+00  -8.56157208849301E-16   0.00000000000000E+00   0.00000000000000E+00