DF-ISE text

Info {
  version   = 1.0
  type      = xyplot
  datasets  = [
    "time"
    "gate OuterVoltage" "gate InnerVoltage" "gate QuasiFermiPotential" "gate DisplacementCurrent" "gate eCurrent"
    "gate hCurrent" "gate TotalCurrent" "gate Charge" "source OuterVoltage" "source InnerVoltage"
    "source QuasiFermiPotential" "source DisplacementCurrent" "source eCurrent" "source hCurrent" "source TotalCurrent"
    "source Charge" "drain OuterVoltage" "drain InnerVoltage" "drain QuasiFermiPotential" "drain DisplacementCurrent"
    "drain eCurrent" "drain hCurrent" "drain TotalCurrent" "drain Charge" ]
  functions = [
    Time
    OuterVoltage InnerVoltage QuasiFermiPotential DisplacementCurrent eCurrent
    hCurrent TotalCurrent Charge OuterVoltage InnerVoltage
    QuasiFermiPotential DisplacementCurrent eCurrent hCurrent TotalCurrent
    Charge OuterVoltage InnerVoltage QuasiFermiPotential DisplacementCurrent
    eCurrent hCurrent TotalCurrent Charge ]
}

Data {
      0.00000000000000E+00
      0.00000000000000E+00   0.00000000000000E+00   0.00000000000000E+00   0.00000000000000E+00   0.00000000000000E+00
      0.00000000000000E+00   0.00000000000000E+00   4.81063217066990E-16   0.00000000000000E+00   0.00000000000000E+00
      0.00000000000000E+00   0.00000000000000E+00   1.93018916812131E-08   3.31494209229855E-16   1.93018920127073E-08
     -1.16995643100631E-16  -7.00000000000000E-01  -7.00000000000000E-01   0.00000000000000E+00   0.00000000000000E+00
     -1.93018919095429E-08   7.28200470928349E-14  -1.93018190894958E-08  -3.65665899859073E-16
      1.66666666666667E-02
     -1.66666666666667E-03  -1.66666666666667E-03   0.00000000000000E+00   0.00000000000000E+00   0.00000000000000E+00
      0.00000000000000E+00   0.00000000000000E+00   4.79867249073225E-16   0.00000000000000E+00   0.00000000000000E+00
      0.00000000000000E+00   0.00000000000000E+00   2.04466771985740E-08   5.19217126303767E-16   2.04466777177911E-08
     -1.16375366306937E-16  -7.00000000000000E-01  -7.00000000000000E-01   0.00000000000000E+00   0.00000000000000E+00
     -2.04466783135651E-08   2.21503069463049E-13  -2.04464568104956E-08  -3.65097439682099E-16
      3.33333333333333E-02
     -3.33333333333333E-03  -3.33333333333333E-03   0.00000000000000E+00   0.00000000000000E+00   0.00000000000000E+00
      0.00000000000000E+00   0.00000000000000E+00   4.78670889816324E-16   0.00000000000000E+00   0.00000000000000E+00
      0.00000000000000E+00   0.00000000000000E+00   2.16590897229309E-08  -2.46097428272117E-14   2.16590651131881E-08
     -1.15754919808527E-16  -7.00000000000000E-01  -7.00000000000000E-01   0.00000000000000E+00   0.00000000000000E+00
     -2.16590651372639E-08  -1.24118052990767E-13  -2.16591892553169E-08  -3.64528893984569E-16
      5.00000000000000E-02
     -5.00000000000000E-03  -5.00000000000000E-03   0.00000000000000E+00   0.00000000000000E+00   0.00000000000000E+00
      0.00000000000000E+00   0.00000000000000E+00   4.77474136186553E-16   0.00000000000000E+00   0.00000000000000E+00
      0.00000000000000E+00   0.00000000000000E+00   2.29430761850923E-08   1.27254913716813E-14   2.29430889105836E-08
     -1.15134303888924E-16  -7.00000000000000E-01  -7.00000000000000E-01   0.00000000000000E+00   0.00000000000000E+00
     -2.29430919783909E-08  -1.32422092789675E-13  -2.29432244004836E-08  -3.63960262586052E-16
      6.66666666666667E-02
     -6.66666666666667E-03  -6.66666666666667E-03   0.00000000000000E+00   0.00000000000000E+00   0.00000000000000E+00
      0.00000000000000E+00   0.00000000000000E+00   4.76276985099027E-16   0.00000000000000E+00   0.00000000000000E+00
      0.00000000000000E+00   0.00000000000000E+00   2.43029721278380E-08   5.04149743563391E-15   2.43029771693354E-08
     -1.14513518851383E-16  -7.00000000000000E-01  -7.00000000000000E-01   0.00000000000000E+00   0.00000000000000E+00
     -2.43029781139999E-08  -4.23844397687089E-13  -2.43034019583976E-08  -3.63391545264434E-16
      8.33333333333333E-02
     -8.33333333333333E-03  -8.33333333333333E-03   0.00000000000000E+00   0.00000000000000E+00   0.00000000000000E+00
      0.00000000000000E+00   0.00000000000000E+00   4.75079433408682E-16   0.00000000000000E+00   0.00000000000000E+00
      0.00000000000000E+00   0.00000000000000E+00   2.57432289747914E-08  -3.41094327395994E-15   2.57432255638481E-08
     -1.13892565018775E-16  -7.00000000000000E-01  -7.00000000000000E-01   0.00000000000000E+00   0.00000000000000E+00
     -2.57432261614724E-08  -8.73447497008377E-13  -2.57440996089694E-08  -3.62822741878187E-16
      1.00000000000000E-01
     -1.00000000000000E-02  -1.00000000000000E-02   0.00000000000000E+00   0.00000000000000E+00   0.00000000000000E+00
      0.00000000000000E+00   0.00000000000000E+00   4.73881479650933E-16   0.00000000000000E+00   0.00000000000000E+00
      0.00000000000000E+00   0.00000000000000E+00   2.72685505650931E-08  -9.70622433321849E-14   2.72684535028497E-08
     -1.13271442732420E-16  -7.00000000000000E-01  -7.00000000000000E-01   0.00000000000000E+00   0.00000000000000E+00
     -2.72685654686782E-08  -2.78283547089389E-12  -2.72713483041490E-08  -3.62253854107832E-16
      1.16666666666667E-01
     -1.16666666666667E-02  -1.16666666666667E-02   0.00000000000000E+00   0.00000000000000E+00   0.00000000000000E+00
      0.00000000000000E+00   0.00000000000000E+00   4.72683115290101E-16   0.00000000000000E+00   0.00000000000000E+00
      0.00000000000000E+00   0.00000000000000E+00   2.88839840448284E-08   5.44724641663980E-16   2.88839845895531E-08
     -1.12650152372224E-16  -7.00000000000000E-01  -7.00000000000000E-01   0.00000000000000E+00   0.00000000000000E+00
     -2.88839842467920E-08  -1.89508335225873E-12  -2.88858793301442E-08  -3.61684876535567E-16
      1.33333333333333E-01
     -1.33333333333333E-02  -1.33333333333333E-02   0.00000000000000E+00   0.00000000000000E+00   0.00000000000000E+00
      0.00000000000000E+00   0.00000000000000E+00   4.71484343937259E-16   0.00000000000000E+00   0.00000000000000E+00
      0.00000000000000E+00   0.00000000000000E+00   3.05948780346413E-08  -1.31290284745364E-13   3.05947467443565E-08
     -1.12028694313741E-16  -7.00000000000000E-01  -7.00000000000000E-01   0.00000000000000E+00   0.00000000000000E+00
     -3.05948652576081E-08  -4.55461375543686E-12  -3.05994198713635E-08  -3.61115815987587E-16
      1.50000000000000E-01
     -1.50000000000000E-02  -1.50000000000000E-02   0.00000000000000E+00   0.00000000000000E+00   0.00000000000000E+00
      0.00000000000000E+00   0.00000000000000E+00   4.70285157102588E-16   0.00000000000000E+00   0.00000000000000E+00
      0.00000000000000E+00   0.00000000000000E+00   3.24067399849169E-08  -9.85556213230103E-14   3.24066414292955E-08
     -1.11407068985575E-16  -7.00000000000000E-01  -7.00000000000000E-01   0.00000000000000E+00   0.00000000000000E+00
     -3.24067587732020E-08  -4.67101448576809E-12  -3.24114297876877E-08  -3.60546667324912E-16
      1.66666666666667E-01
     -1.66666666666667E-02  -1.66666666666667E-02   0.00000000000000E+00   0.00000000000000E+00   0.00000000000000E+00
      0.00000000000000E+00   0.00000000000000E+00   4.69085552908208E-16   0.00000000000000E+00   0.00000000000000E+00
      0.00000000000000E+00   0.00000000000000E+00   3.43256017895249E-08  -1.22527807152014E-13   3.43254792617177E-08
     -1.10785276822766E-16  -7.00000000000000E-01  -7.00000000000000E-01   0.00000000000000E+00   0.00000000000000E+00
     -3.43255977374862E-08  -4.95731327879342E-12  -3.43305550507650E-08  -3.59977431933211E-16
      1.83333333333333E-01
     -1.83333333333333E-02  -1.83333333333333E-02   0.00000000000000E+00   0.00000000000000E+00   0.00000000000000E+00
      0.00000000000000E+00   0.00000000000000E+00   4.67885527979716E-16   0.00000000000000E+00   0.00000000000000E+00
      0.00000000000000E+00   0.00000000000000E+00   3.63576583950222E-08  -1.04051344697594E-13   3.63575543436775E-08
     -1.10163318291656E-16  -7.00000000000000E-01  -7.00000000000000E-01   0.00000000000000E+00   0.00000000000000E+00
     -3.63576730602144E-08  -5.16932502057751E-12  -3.63628423852350E-08  -3.59408109862029E-16
      2.00000000000000E-01
     -2.00000000000000E-02  -2.00000000000000E-02   0.00000000000000E+00   0.00000000000000E+00   0.00000000000000E+00
      0.00000000000000E+00   0.00000000000000E+00   4.66685078699856E-16   0.00000000000000E+00   0.00000000000000E+00
      0.00000000000000E+00   0.00000000000000E+00   3.85096221611882E-08  -9.82638735598409E-14   3.85095238973146E-08
     -1.09541193885908E-16  -7.00000000000000E-01  -7.00000000000000E-01   0.00000000000000E+00   0.00000000000000E+00
     -3.85096423031979E-08  -4.62501272158692E-12  -3.85142673159195E-08  -3.58838701015851E-16
      2.16666666666667E-01
     -2.16666666666667E-02  -2.16666666666667E-02   0.00000000000000E+00   0.00000000000000E+00   0.00000000000000E+00
      0.00000000000000E+00   0.00000000000000E+00   4.65484201482990E-16   0.00000000000000E+00   0.00000000000000E+00
      0.00000000000000E+00   0.00000000000000E+00   4.07884629323137E-08  -9.94334199634578E-14   4.07883634988938E-08
     -1.08918904121275E-16  -7.00000000000000E-01  -7.00000000000000E-01   0.00000000000000E+00   0.00000000000000E+00
     -4.07884832491286E-08  -2.78406972094379E-12  -4.07912673188495E-08  -3.58269205420246E-16
      2.33333333333333E-01
     -2.33333333333333E-02  -2.33333333333333E-02   0.00000000000000E+00   0.00000000000000E+00   0.00000000000000E+00
      0.00000000000000E+00   0.00000000000000E+00   4.64282892747600E-16   0.00000000000000E+00   0.00000000000000E+00
      0.00000000000000E+00   0.00000000000000E+00   4.32014764629547E-08  -1.08384854819937E-13   4.32013680780999E-08
     -1.08296449545764E-16  -7.00000000000000E-01  -7.00000000000000E-01   0.00000000000000E+00   0.00000000000000E+00
     -4.32014901412960E-08   2.60882479645132E-13  -4.32012292588163E-08  -3.57699623211714E-16
      2.50000000000000E-01
     -2.50000000000000E-02  -2.50000000000000E-02   0.00000000000000E+00   0.00000000000000E+00   0.00000000000000E+00
      0.00000000000000E+00   0.00000000000000E+00   4.63081147316750E-16   0.00000000000000E+00   0.00000000000000E+00
      0.00000000000000E+00   0.00000000000000E+00   4.57561078629105E-08  -1.95427795750461E-15   4.57561059086325E-08
     -1.07673830735453E-16  -7.00000000000000E-01  -7.00000000000000E-01   0.00000000000000E+00   0.00000000000000E+00
     -4.57561062221490E-08   5.01616699823220E-12  -4.57510900551508E-08  -3.57129953010236E-16
      2.66666666666667E-01
     -2.66666666666667E-02  -2.66666666666667E-02   0.00000000000000E+00   0.00000000000000E+00   0.00000000000000E+00
      0.00000000000000E+00   0.00000000000000E+00   4.61878964966102E-16   0.00000000000000E+00   0.00000000000000E+00
      0.00000000000000E+00   0.00000000000000E+00   4.84605475461182E-08  -4.38279886216849E-14   4.84605037181296E-08
     -1.07051048289445E-16  -7.00000000000000E-01  -7.00000000000000E-01   0.00000000000000E+00   0.00000000000000E+00
     -4.84605026127497E-08   3.57199715023005E-12  -4.84569306155995E-08  -3.56560198556850E-16
      2.83333333333333E-01
     -2.83333333333333E-02  -2.83333333333333E-02   0.00000000000000E+00   0.00000000000000E+00   0.00000000000000E+00
      0.00000000000000E+00   0.00000000000000E+00   4.60676340913235E-16   0.00000000000000E+00   0.00000000000000E+00
      0.00000000000000E+00   0.00000000000000E+00   5.13238532007286E-08  -1.35115190817129E-13   5.13237180855378E-08
     -1.06428102845069E-16  -7.00000000000000E-01  -7.00000000000000E-01   0.00000000000000E+00   0.00000000000000E+00
     -5.13238432107423E-08  -9.24432703420703E-13  -5.13247676434457E-08  -3.55990359166124E-16
      3.00000000000000E-01
     -3.00000000000000E-02  -3.00000000000000E-02   0.00000000000000E+00   0.00000000000000E+00   0.00000000000000E+00
      0.00000000000000E+00   0.00000000000000E+00   4.59473267014811E-16   0.00000000000000E+00   0.00000000000000E+00
      0.00000000000000E+00   0.00000000000000E+00   5.43555997674025E-08  -1.05223138860035E-13   5.43554945442637E-08
     -1.05804995083178E-16  -7.00000000000000E-01  -7.00000000000000E-01   0.00000000000000E+00   0.00000000000000E+00
     -5.43556177027178E-08  -4.48815552363037E-12  -5.43601058582415E-08  -3.55420430864960E-16
      3.16666666666667E-01
     -3.16666666666667E-02  -3.16666666666667E-02   0.00000000000000E+00   0.00000000000000E+00   0.00000000000000E+00
      0.00000000000000E+00   0.00000000000000E+00   4.58269740387070E-16   0.00000000000000E+00   0.00000000000000E+00
      0.00000000000000E+00   0.00000000000000E+00   5.75657863905365E-08  -1.27307408357492E-13   5.75656590831281E-08
     -1.05181725702372E-16  -7.00000000000000E-01  -7.00000000000000E-01   0.00000000000000E+00   0.00000000000000E+00
     -5.75657857804520E-08  -5.65487728124239E-12  -5.75714406577333E-08  -3.54850415087897E-16
      3.33333333333333E-01
     -3.33333333333333E-02  -3.33333333333333E-02   0.00000000000000E+00   0.00000000000000E+00   0.00000000000000E+00
      0.00000000000000E+00   0.00000000000000E+00   4.57065756741752E-16   0.00000000000000E+00   0.00000000000000E+00
      0.00000000000000E+00   0.00000000000000E+00   6.09646728626468E-08  -1.05840213954356E-13   6.09645670224328E-08
     -1.04558295445510E-16  -7.00000000000000E-01  -7.00000000000000E-01   0.00000000000000E+00   0.00000000000000E+00
     -6.09646903005555E-08  -3.79043965711747E-12  -6.09684807402126E-08  -3.54280312015604E-16
      3.50000000000000E-01
     -3.50000000000000E-02  -3.50000000000000E-02   0.00000000000000E+00   0.00000000000000E+00   0.00000000000000E+00
      0.00000000000000E+00   0.00000000000000E+00   4.55861311656458E-16   0.00000000000000E+00   0.00000000000000E+00
      0.00000000000000E+00   0.00000000000000E+00   6.45631285274938E-08  -1.04356924284971E-13   6.45630241705696E-08
     -1.03934705075348E-16  -7.00000000000000E-01  -7.00000000000000E-01   0.00000000000000E+00   0.00000000000000E+00
     -6.45631470557491E-08   4.51454481341026E-13  -6.45626956012677E-08  -3.53710121797687E-16
      3.66666666666667E-01
     -3.66666666666667E-02  -3.66666666666667E-02   0.00000000000000E+00   0.00000000000000E+00   0.00000000000000E+00
      0.00000000000000E+00   0.00000000000000E+00   4.54656400631282E-16   0.00000000000000E+00   0.00000000000000E+00
      0.00000000000000E+00   0.00000000000000E+00   6.83725602056999E-08  -1.54057380764420E-13   6.83724061483191E-08
     -1.03310955396018E-16  -7.00000000000000E-01  -7.00000000000000E-01   0.00000000000000E+00   0.00000000000000E+00
     -6.83725319232804E-08   4.74017128779746E-12  -6.83677917519926E-08  -3.53139844632530E-16
      3.83333333333333E-01
     -3.83333333333333E-02  -3.83333333333333E-02   0.00000000000000E+00   0.00000000000000E+00   0.00000000000000E+00
      0.00000000000000E+00   0.00000000000000E+00   4.53451017242940E-16   0.00000000000000E+00   0.00000000000000E+00
      0.00000000000000E+00   0.00000000000000E+00   7.24046700522397E-08  -3.31155064389262E-15   7.24046667406890E-08
     -1.02687047255291E-16  -7.00000000000000E-01  -7.00000000000000E-01   0.00000000000000E+00   0.00000000000000E+00
     -7.24046664919142E-08   5.33127351778771E-12  -7.23993352183965E-08  -3.52569478809836E-16
      4.00000000000000E-01
     -4.00000000000000E-02  -4.00000000000000E-02   0.00000000000000E+00   0.00000000000000E+00   0.00000000000000E+00
      0.00000000000000E+00   0.00000000000000E+00   4.52245161628447E-16   0.00000000000000E+00   0.00000000000000E+00
      0.00000000000000E+00   0.00000000000000E+00   7.66730547347002E-08  -1.18400739146285E-13   7.66729363339610E-08
     -1.02062981527795E-16  -7.00000000000000E-01  -7.00000000000000E-01   0.00000000000000E+00   0.00000000000000E+00
     -7.66730587875043E-08  -3.33739196388206E-13  -7.66733925267007E-08  -3.51999029785043E-16
      4.16666666666667E-01
     -4.16666666666667E-02  -4.16666666666667E-02   0.00000000000000E+00   0.00000000000000E+00   0.00000000000000E+00
      0.00000000000000E+00   0.00000000000000E+00   4.51038822564243E-16   0.00000000000000E+00   0.00000000000000E+00
      0.00000000000000E+00   0.00000000000000E+00   8.11920329178986E-08  -1.33689076055151E-13   8.11918992288225E-08
     -1.01438759154833E-16  -7.00000000000000E-01  -7.00000000000000E-01   0.00000000000000E+00   0.00000000000000E+00
     -8.11920220344134E-08  -1.15558279086657E-11  -8.12035778623221E-08  -3.51428491219473E-16
      4.33333333333333E-01
     -4.33333333333333E-02  -4.33333333333333E-02   0.00000000000000E+00   0.00000000000000E+00   0.00000000000000E+00
      0.00000000000000E+00   0.00000000000000E+00   4.49831995767196E-16   0.00000000000000E+00   0.00000000000000E+00
      0.00000000000000E+00   0.00000000000000E+00   8.59758827608301E-08  -1.27144213114524E-13   8.59757556166170E-08
     -1.00814381092630E-16  -7.00000000000000E-01  -7.00000000000000E-01   0.00000000000000E+00   0.00000000000000E+00
     -8.59758770235734E-08  -7.38557012651292E-12  -8.59832625936999E-08  -3.50857864396675E-16
      4.50000000000000E-01
     -4.50000000000000E-02  -4.50000000000000E-02   0.00000000000000E+00   0.00000000000000E+00   0.00000000000000E+00
      0.00000000000000E+00   0.00000000000000E+00   4.48624676475799E-16   0.00000000000000E+00   0.00000000000000E+00
      0.00000000000000E+00   0.00000000000000E+00   9.10397433731167E-08  -8.72324549014709E-14   9.10396561406618E-08
     -1.00189848347507E-16  -7.00000000000000E-01  -7.00000000000000E-01   0.00000000000000E+00   0.00000000000000E+00
     -9.10397739842741E-08  -2.07757542480892E-12  -9.10418515596989E-08  -3.50287150035886E-16
      4.66666666666667E-01
     -4.66666666666667E-02  -4.66666666666667E-02   0.00000000000000E+00   0.00000000000000E+00   0.00000000000000E+00
      0.00000000000000E+00   0.00000000000000E+00   4.47416859064409E-16   0.00000000000000E+00   0.00000000000000E+00
      0.00000000000000E+00   0.00000000000000E+00   9.63998888748010E-08  -1.13444087523288E-13   9.63997754307135E-08
     -9.95651619664436E-17  -7.00000000000000E-01  -7.00000000000000E-01   0.00000000000000E+00   0.00000000000000E+00
     -9.63998935867195E-08  -9.38254269066952E-13  -9.64008318409886E-08  -3.49716348187398E-16
      4.83333333333333E-01
     -4.83333333333333E-02  -4.83333333333333E-02   0.00000000000000E+00   0.00000000000000E+00   0.00000000000000E+00
      0.00000000000000E+00   0.00000000000000E+00   4.46208537422488E-16   0.00000000000000E+00   0.00000000000000E+00
      0.00000000000000E+00   0.00000000000000E+00   1.02073450909707E-07  -9.44408026553794E-14   1.02073356468905E-07
     -9.89403230443947E-17  -7.00000000000000E-01  -7.00000000000000E-01   0.00000000000000E+00   0.00000000000000E+00
     -1.02073471336495E-07  -4.71084204962034E-12  -1.02078182178545E-07  -3.49145458664330E-16
      5.00000000000000E-01
     -5.00000000000000E-02  -5.00000000000000E-02   0.00000000000000E+00   0.00000000000000E+00   0.00000000000000E+00
      0.00000000000000E+00   0.00000000000000E+00   4.44999705105078E-16   0.00000000000000E+00   0.00000000000000E+00
      0.00000000000000E+00   0.00000000000000E+00   1.08078750737641E-07  -9.33690858612898E-14   1.08078657368555E-07
     -9.83153327228283E-17  -7.00000000000000E-01  -7.00000000000000E-01   0.00000000000000E+00   0.00000000000000E+00
     -1.08078771445770E-07  -1.03917151642289E-11  -1.08089163160934E-07  -3.48574481183947E-16
      5.16666666666667E-01
     -5.16666666666667E-02  -5.16666666666667E-02   0.00000000000000E+00   0.00000000000000E+00   0.00000000000000E+00
      0.00000000000000E+00   0.00000000000000E+00   4.43790355475495E-16   0.00000000000000E+00   0.00000000000000E+00
      0.00000000000000E+00   0.00000000000000E+00   1.14435079730647E-07  -9.60930822699177E-14   1.14434983637565E-07
     -9.76901921931112E-17  -7.00000000000000E-01  -7.00000000000000E-01   0.00000000000000E+00   0.00000000000000E+00
     -1.14435094689092E-07  -1.72021550855049E-11  -1.14452296844177E-07  -3.48003415503168E-16
      5.33333333333333E-01
     -5.33333333333333E-02  -5.33333333333333E-02   0.00000000000000E+00   0.00000000000000E+00   0.00000000000000E+00
      0.00000000000000E+00   0.00000000000000E+00   4.42580481711363E-16   0.00000000000000E+00   0.00000000000000E+00
      0.00000000000000E+00   0.00000000000000E+00   1.21162896102452E-07  -1.64331496972143E-13   1.21162731770955E-07
     -9.70649026969187E-17  -7.00000000000000E-01  -7.00000000000000E-01   0.00000000000000E+00   0.00000000000000E+00
     -1.21162836903633E-07  -2.48632773591322E-11  -1.21187700180992E-07  -3.47432261379652E-16
      5.50000000000000E-01
     -5.50000000000000E-02  -5.50000000000000E-02   0.00000000000000E+00   0.00000000000000E+00   0.00000000000000E+00
      0.00000000000000E+00   0.00000000000000E+00   4.41370073556056E-16   0.00000000000000E+00   0.00000000000000E+00
      0.00000000000000E+00   0.00000000000000E+00   1.28283772656703E-07  -1.10902315615960E-15   1.28283771547679E-07
     -9.64394655343894E-17  -7.00000000000000E-01  -7.00000000000000E-01   0.00000000000000E+00   0.00000000000000E+00
     -1.28283770349655E-07  -2.94551840544499E-11  -1.28313225533710E-07  -3.46861015117730E-16
      5.66666666666667E-01
     -5.66666666666667E-02  -5.66666666666667E-02   0.00000000000000E+00   0.00000000000000E+00   0.00000000000000E+00
      0.00000000000000E+00   0.00000000000000E+00   4.40159128281863E-16   0.00000000000000E+00   0.00000000000000E+00
      0.00000000000000E+00   0.00000000000000E+00   1.35821158277562E-07  -5.27132696407010E-15   1.35821153006235E-07
     -9.58138820373556E-17  -7.00000000000000E-01  -7.00000000000000E-01   0.00000000000000E+00   0.00000000000000E+00
     -1.35821153572443E-07  -2.62066909973633E-11  -1.35847360263440E-07  -3.46289681464929E-16
      5.83333333333333E-01
     -5.83333333333333E-02  -5.83333333333333E-02   0.00000000000000E+00   0.00000000000000E+00   0.00000000000000E+00
      0.00000000000000E+00   0.00000000000000E+00   4.38947640030886E-16   0.00000000000000E+00   0.00000000000000E+00
      0.00000000000000E+00   0.00000000000000E+00   1.43798360422677E-07  -7.91386203056990E-14   1.43798281284057E-07
     -9.51881536004904E-17  -7.00000000000000E-01  -7.00000000000000E-01   0.00000000000000E+00   0.00000000000000E+00
     -1.43798377247982E-07  -2.20195877568753E-11  -1.43820396835739E-07  -3.45718261919623E-16
      6.00000000000000E-01
     -6.00000000000000E-02  -6.00000000000000E-02   0.00000000000000E+00   0.00000000000000E+00   0.00000000000000E+00
      0.00000000000000E+00   0.00000000000000E+00   4.37735596946175E-16   0.00000000000000E+00   0.00000000000000E+00
      0.00000000000000E+00   0.00000000000000E+00   1.52240299932937E-07  -1.47965228478613E-13   1.52240151967709E-07
     -9.45622816846540E-17  -7.00000000000000E-01  -7.00000000000000E-01   0.00000000000000E+00   0.00000000000000E+00
     -1.52240243214573E-07  -6.69196134864967E-12  -1.52246935175922E-07  -3.45146751838443E-16
      6.16666666666667E-01
     -6.16666666666667E-02  -6.16666666666667E-02   0.00000000000000E+00   0.00000000000000E+00   0.00000000000000E+00
      0.00000000000000E+00   0.00000000000000E+00   4.36522993955145E-16   0.00000000000000E+00   0.00000000000000E+00
      0.00000000000000E+00   0.00000000000000E+00   1.61173520412940E-07  -1.24754493358710E-13   1.61173395658446E-07
     -9.39362678014811E-17  -7.00000000000000E-01  -7.00000000000000E-01   0.00000000000000E+00   0.00000000000000E+00
     -1.61173470059562E-07  -8.18051350618661E-12  -1.61181650573068E-07  -3.44575153532588E-16
      6.33333333333334E-01
     -6.33333333333334E-02  -6.33333333333334E-02   0.00000000000000E+00   0.00000000000000E+00   0.00000000000000E+00
      0.00000000000000E+00   0.00000000000000E+00   4.35309822902457E-16   0.00000000000000E+00   0.00000000000000E+00
      0.00000000000000E+00   0.00000000000000E+00   1.70626783944730E-07  -8.28623024975271E-14   1.70626701082427E-07
     -9.33101135219542E-17  -7.00000000000000E-01  -7.00000000000000E-01   0.00000000000000E+00   0.00000000000000E+00
     -1.70626775332600E-07  -2.32126848776635E-11  -1.70649988017477E-07  -3.44003466568776E-16
      6.50000000000000E-01
     -6.50000000000000E-02  -6.50000000000000E-02   0.00000000000000E+00   0.00000000000000E+00   0.00000000000000E+00
      0.00000000000000E+00   0.00000000000000E+00   4.34096075117738E-16   0.00000000000000E+00   0.00000000000000E+00
      0.00000000000000E+00   0.00000000000000E+00   1.80630609388755E-07  -9.73671721853224E-14   1.80630512021583E-07
     -9.26838204783982E-17  -7.00000000000000E-01  -7.00000000000000E-01   0.00000000000000E+00   0.00000000000000E+00
     -1.80630584400272E-07  -3.23282899298287E-11  -1.80662912690202E-07  -3.43431690304907E-16
      6.66666666666667E-01
     -6.66666666666667E-02  -6.66666666666667E-02   0.00000000000000E+00   0.00000000000000E+00   0.00000000000000E+00
      0.00000000000000E+00   0.00000000000000E+00   4.32881742222159E-16   0.00000000000000E+00   0.00000000000000E+00
      0.00000000000000E+00   0.00000000000000E+00   1.91216749098342E-07  -1.32211164243375E-13   1.91216616887178E-07
     -9.20573903698011E-17  -7.00000000000000E-01  -7.00000000000000E-01   0.00000000000000E+00   0.00000000000000E+00
     -1.91216681343122E-07  -1.51395544716744E-11  -1.91231820897594E-07  -3.42859824754357E-16
      6.83333333333334E-01
     -6.83333333333334E-02  -6.83333333333334E-02   0.00000000000000E+00   0.00000000000000E+00   0.00000000000000E+00
      0.00000000000000E+00   0.00000000000000E+00   4.31666816247720E-16   0.00000000000000E+00   0.00000000000000E+00
      0.00000000000000E+00   0.00000000000000E+00   2.02418089968415E-07  -6.86781137954413E-14   2.02418021290302E-07
     -9.14308249536309E-17  -7.00000000000000E-01  -7.00000000000000E-01   0.00000000000000E+00   0.00000000000000E+00
     -2.02418078916883E-07   3.64625355875499E-11  -2.02381616381295E-07  -3.42287870820903E-16
      7.00000000000001E-01
     -7.00000000000000E-02  -7.00000000000000E-02   0.00000000000000E+00   0.00000000000000E+00   0.00000000000000E+00
      0.00000000000000E+00   0.00000000000000E+00   4.30451289424721E-16   0.00000000000000E+00   0.00000000000000E+00
      0.00000000000000E+00   0.00000000000000E+00   2.14269255288445E-07  -9.87125184657369E-14   2.14269156575927E-07
     -9.08041260604369E-17  -7.00000000000000E-01  -7.00000000000000E-01   0.00000000000000E+00   0.00000000000000E+00
     -2.14269199892590E-07   1.10675295252907E-10  -2.14158524597337E-07  -3.41715829973204E-16
      7.16666666666667E-01
     -7.16666666666667E-02  -7.16666666666667E-02   0.00000000000000E+00   0.00000000000000E+00   0.00000000000000E+00
      0.00000000000000E+00   0.00000000000000E+00   4.29235154226986E-16   0.00000000000000E+00   0.00000000000000E+00
      0.00000000000000E+00   0.00000000000000E+00   2.26804184917546E-07  -2.29074344529533E-14   2.26804162010112E-07
     -9.01772955913690E-17  -7.00000000000000E-01  -7.00000000000000E-01   0.00000000000000E+00   0.00000000000000E+00
     -2.26804160945872E-07   7.60666283155284E-11  -2.26728094317557E-07  -3.41143704444812E-16
      7.33333333333334E-01
     -7.33333333333334E-02  -7.33333333333334E-02   0.00000000000000E+00   0.00000000000000E+00   0.00000000000000E+00
      0.00000000000000E+00   0.00000000000000E+00   4.28018403725857E-16   0.00000000000000E+00   0.00000000000000E+00
      0.00000000000000E+00   0.00000000000000E+00   2.40064901028012E-07  -8.16992281701064E-14   2.40064819328784E-07
     -8.95503355028817E-17  -7.00000000000000E-01  -7.00000000000000E-01   0.00000000000000E+00   0.00000000000000E+00
     -2.40064847272458E-07   1.06383513751984E-10  -2.39958463758706E-07  -3.40571497182179E-16
      7.50000000000001E-01
     -7.50000000000001E-02  -7.50000000000001E-02   0.00000000000000E+00   0.00000000000000E+00   0.00000000000000E+00
      0.00000000000000E+00   0.00000000000000E+00   4.26801019404449E-16   0.00000000000000E+00   0.00000000000000E+00
      0.00000000000000E+00   0.00000000000000E+00   2.54093833238210E-07  -4.05768078362678E-14   2.54093792661403E-07
     -8.89232478660905E-17  -7.00000000000000E-01  -7.00000000000000E-01   0.00000000000000E+00   0.00000000000000E+00
     -2.54093806040014E-07   6.93529195884711E-11  -2.54024453120425E-07  -3.39999199223692E-16
      7.66666666666667E-01
     -7.66666666666667E-02  -7.66666666666667E-02   0.00000000000000E+00   0.00000000000000E+00   0.00000000000000E+00
      0.00000000000000E+00   0.00000000000000E+00   4.25582991581095E-16   0.00000000000000E+00   0.00000000000000E+00
      0.00000000000000E+00   0.00000000000000E+00   2.68935856886591E-07   2.79637714280636E-14   2.68935884850363E-07
     -8.82960348036989E-17  -7.00000000000000E-01  -7.00000000000000E-01   0.00000000000000E+00   0.00000000000000E+00
     -2.68935896339288E-07   3.66206344162563E-11  -2.68899275704872E-07  -3.39426811463646E-16
      7.83333333333334E-01
     -7.83333333333334E-02  -7.83333333333334E-02   0.00000000000000E+00   0.00000000000000E+00   0.00000000000000E+00
      0.00000000000000E+00   0.00000000000000E+00   4.24364305698113E-16   0.00000000000000E+00   0.00000000000000E+00
      0.00000000000000E+00   0.00000000000000E+00   2.84638871275519E-07   3.14148482870716E-16   2.84638871589667E-07
     -8.76686985296248E-17  -7.00000000000000E-01  -7.00000000000000E-01   0.00000000000000E+00   0.00000000000000E+00
     -2.84638871801445E-07  -1.55471864661226E-12  -2.84640426520091E-07  -3.38854329972722E-16
      8.00000000000001E-01
     -8.00000000000001E-02  -8.00000000000001E-02   0.00000000000000E+00   0.00000000000000E+00   0.00000000000000E+00
      0.00000000000000E+00   0.00000000000000E+00   4.23144960760994E-16   0.00000000000000E+00   0.00000000000000E+00