DF-ISE text

Info {
  version   = 1.0
  type      = xyplot
  datasets  = [
    "time"
    "gate OuterVoltage" "gate InnerVoltage" "gate QuasiFermiPotential" "gate DisplacementCurrent" "gate eCurrent"
    "gate hCurrent" "gate TotalCurrent" "gate Charge" "source OuterVoltage" "source InnerVoltage"
    "source QuasiFermiPotential" "source DisplacementCurrent" "source eCurrent" "source hCurrent" "source TotalCurrent"
    "source Charge" "drain OuterVoltage" "drain InnerVoltage" "drain QuasiFermiPotential" "drain DisplacementCurrent"
    "drain eCurrent" "drain hCurrent" "drain TotalCurrent" "drain Charge" ]
  functions = [
    Time
    OuterVoltage InnerVoltage QuasiFermiPotential DisplacementCurrent eCurrent
    hCurrent TotalCurrent Charge OuterVoltage InnerVoltage
    QuasiFermiPotential DisplacementCurrent eCurrent hCurrent TotalCurrent
    Charge OuterVoltage InnerVoltage QuasiFermiPotential DisplacementCurrent
    eCurrent hCurrent TotalCurrent Charge ]
}

Data {
      0.00000000000000E+00
      0.00000000000000E+00   0.00000000000000E+00   0.00000000000000E+00   0.00000000000000E+00   0.00000000000000E+00
      0.00000000000000E+00   0.00000000000000E+00  -5.68405475933430E-16   0.00000000000000E+00   0.00000000000000E+00
      0.00000000000000E+00   0.00000000000000E+00  -6.25741708956747E-08  -5.27451370095116E-27  -6.25741708956747E-08
      1.09469883065277E-16   1.00000000000000E+00   1.00000000000000E+00   0.00000000000000E+00   0.00000000000000E+00
      6.25741708956314E-08   5.22082468097201E-21   6.25741708956367E-08   4.60144640867013E-16
      1.66666666666667E-02
      1.66666666666667E-02   1.66666666666667E-02   0.00000000000000E+00   0.00000000000000E+00   0.00000000000000E+00
      0.00000000000000E+00   0.00000000000000E+00  -5.56578991440742E-16   0.00000000000000E+00   0.00000000000000E+00
      0.00000000000000E+00   0.00000000000000E+00  -1.11377264597563E-07  -8.93310086998425E-20  -1.11377264597652E-07
      1.03210334570415E-16   1.00000000000000E+00   1.00000000000000E+00   0.00000000000000E+00   0.00000000000000E+00
      1.11378918433918E-07   2.45728661140352E-17   1.11378918458491E-07   4.54598686850300E-16
      3.33333333333333E-02
      3.33333333333333E-02   3.33333333333333E-02   0.00000000000000E+00   0.00000000000000E+00   0.00000000000000E+00
      0.00000000000000E+00   0.00000000000000E+00  -5.44708392048006E-16   0.00000000000000E+00   0.00000000000000E+00
      0.00000000000000E+00   0.00000000000000E+00  -1.97783692121462E-07   2.03197167433547E-25  -1.97783692121462E-07
      9.69242274326408E-17   1.00000000000000E+00   1.00000000000000E+00   0.00000000000000E+00   0.00000000000000E+00
      1.97783692123425E-07   3.72944658609338E-19   1.97783692123798E-07   4.49045795029172E-16
      5.00000000000000E-02
      5.00000000000000E-02   5.00000000000000E-02   0.00000000000000E+00   0.00000000000000E+00   0.00000000000000E+00
      0.00000000000000E+00   0.00000000000000E+00  -5.32787614339220E-16   0.00000000000000E+00   0.00000000000000E+00
      0.00000000000000E+00   0.00000000000000E+00  -3.50224726483290E-07  -8.90701635523822E-28  -3.50224726483290E-07
      9.06111948458722E-17   1.00000000000000E+00   1.00000000000000E+00   0.00000000000000E+00   0.00000000000000E+00
      3.50224726481488E-07   3.17972179117570E-20   3.50224726481520E-07   4.43485958313215E-16
      6.66666666666667E-02
      6.66666666666667E-02   6.66666666666667E-02   0.00000000000000E+00   0.00000000000000E+00   0.00000000000000E+00
      0.00000000000000E+00   0.00000000000000E+00  -5.20807967134341E-16   0.00000000000000E+00   0.00000000000000E+00
      0.00000000000000E+00   0.00000000000000E+00  -6.17987739762943E-07  -7.18980483873188E-27  -6.17987739762943E-07
      8.42713973376542E-17   1.00000000000000E+00   1.00000000000000E+00   0.00000000000000E+00   0.00000000000000E+00
      6.17987739761872E-07   8.99715618161123E-23   6.17987739761872E-07   4.37919185517184E-16
      8.33333333333333E-02
      8.33333333333333E-02   8.33333333333333E-02   0.00000000000000E+00   0.00000000000000E+00   0.00000000000000E+00
      0.00000000000000E+00   0.00000000000000E+00  -5.08756680315322E-16   0.00000000000000E+00   0.00000000000000E+00
      0.00000000000000E+00   0.00000000000000E+00  -1.08561762718605E-06   1.17854937080837E-23  -1.08561762718605E-06
      7.79058245043668E-17   1.00000000000000E+00   1.00000000000000E+00   0.00000000000000E+00   0.00000000000000E+00
      1.08561766201226E-06  -4.26116743564881E-21   1.08561766201225E-06   4.32345509792942E-16
      1.00000000000000E-01
      1.00000000000000E-01   1.00000000000000E-01   0.00000000000000E+00   0.00000000000000E+00   0.00000000000000E+00
      0.00000000000000E+00   0.00000000000000E+00  -4.96614709368917E-16   0.00000000000000E+00   0.00000000000000E+00
      0.00000000000000E+00   0.00000000000000E+00  -1.89604265948759E-06   2.15119159583565E-23  -1.89604265948759E-06
      7.15167143950300E-17   1.00000000000000E+00   1.00000000000000E+00   0.00000000000000E+00   0.00000000000000E+00
      1.89604269946372E-06   1.98267292703669E-21   1.89604269946372E-06   4.26765000646114E-16
      1.16666666666667E-01
      1.16666666666667E-01   1.16666666666667E-01   0.00000000000000E+00   0.00000000000000E+00   0.00000000000000E+00
      0.00000000000000E+00   0.00000000000000E+00  -4.84353578289640E-16   0.00000000000000E+00   0.00000000000000E+00
      0.00000000000000E+00   0.00000000000000E+00  -3.28587250116827E-06   1.38672642600912E-23  -3.28587250116827E-06
      6.51081019027335E-17   1.00000000000000E+00   1.00000000000000E+00   0.00000000000000E+00   0.00000000000000E+00
      3.28587257694781E-06   3.03100335583147E-21   3.28587257694781E-06   4.21177779994546E-16
      1.33333333333333E-01
      1.33333333333333E-01   1.33333333333333E-01   0.00000000000000E+00   0.00000000000000E+00   0.00000000000000E+00
      0.00000000000000E+00   0.00000000000000E+00  -4.71931226315212E-16   0.00000000000000E+00   0.00000000000000E+00
      0.00000000000000E+00   0.00000000000000E+00  -5.63506482329865E-06   1.58948843714391E-23  -5.63506482329865E-06
      5.86864610436200E-17   1.00000000000000E+00   1.00000000000000E+00   0.00000000000000E+00   0.00000000000000E+00
      5.63506516767206E-06   3.89874184660871E-21   5.63506516767206E-06   4.15584039104493E-16
      1.50000000000000E-01
      1.50000000000000E-01   1.50000000000000E-01   0.00000000000000E+00   0.00000000000000E+00   0.00000000000000E+00
      0.00000000000000E+00   0.00000000000000E+00  -4.59287390221900E-16   0.00000000000000E+00   0.00000000000000E+00
      0.00000000000000E+00   0.00000000000000E+00  -9.52760044920318E-06   2.56956411960930E-23  -9.52760044920318E-06
      5.22613055313513E-17   1.00000000000000E+00   1.00000000000000E+00   0.00000000000000E+00   0.00000000000000E+00
      9.52760211478106E-06   3.98961167267470E-21   9.52760211478107E-06   4.09984050738213E-16
      1.66666666666667E-01
      1.66666666666667E-01   1.66666666666667E-01   0.00000000000000E+00   0.00000000000000E+00   0.00000000000000E+00
      0.00000000000000E+00   0.00000000000000E+00  -4.46340158436994E-16   0.00000000000000E+00   0.00000000000000E+00
      0.00000000000000E+00   0.00000000000000E+00  -1.58072404627687E-05   3.90369516362650E-23  -1.58072404627687E-05
      4.58454553055863E-17   1.00000000000000E+00   1.00000000000000E+00   0.00000000000000E+00   0.00000000000000E+00
      1.58072468838623E-05  -1.26522037686771E-21   1.58072468838623E-05   4.04378167181232E-16
      1.83333333333333E-01
      1.83333333333333E-01   1.83333333333333E-01   0.00000000000000E+00   0.00000000000000E+00   0.00000000000000E+00
      0.00000000000000E+00   0.00000000000000E+00  -4.32986604130611E-16   0.00000000000000E+00   0.00000000000000E+00
      0.00000000000000E+00   0.00000000000000E+00  -2.55954626470680E-05  -3.56959345427876E-23  -2.55954626470680E-05
      3.94545487051331E-17   1.00000000000000E+00   1.00000000000000E+00   0.00000000000000E+00   0.00000000000000E+00
      2.55954816437306E-05  -1.57660476868648E-20   2.55954816437306E-05   3.98766794391043E-16
      2.00000000000000E-01
      2.00000000000000E-01   2.00000000000000E-01   0.00000000000000E+00   0.00000000000000E+00   0.00000000000000E+00
      0.00000000000000E+00   0.00000000000000E+00  -4.19110196284533E-16   0.00000000000000E+00   0.00000000000000E+00
      0.00000000000000E+00   0.00000000000000E+00  -4.02354218411657E-05   4.86266406524911E-23  -4.02354218411657E-05
      3.31055146885525E-17   1.00000000000000E+00   1.00000000000000E+00   0.00000000000000E+00   0.00000000000000E+00
      4.02354651012944E-05  -1.47348998064644E-20   4.02354651012944E-05   3.93150328053748E-16
      2.16666666666667E-01
      2.16666666666667E-01   2.16666666666667E-01   0.00000000000000E+00   0.00000000000000E+00   0.00000000000000E+00
      0.00000000000000E+00   0.00000000000000E+00  -4.04593165227001E-16   0.00000000000000E+00   0.00000000000000E+00
      0.00000000000000E+00   0.00000000000000E+00  -6.11739286330599E-05   3.85077089118762E-23  -6.11739286330599E-05
      2.68143890948241E-17   1.00000000000000E+00   1.00000000000000E+00   0.00000000000000E+00   0.00000000000000E+00
      6.11740032937542E-05  -1.73271160567644E-21   6.11740032937542E-05   3.87529023023145E-16
      2.33333333333333E-01
      2.33333333333333E-01   2.33333333333333E-01   0.00000000000000E+00   0.00000000000000E+00   0.00000000000000E+00
      0.00000000000000E+00   0.00000000000000E+00  -3.89316186604460E-16   0.00000000000000E+00   0.00000000000000E+00
      0.00000000000000E+00   0.00000000000000E+00  -8.99959127023935E-05   3.11080914633604E-23  -8.99959127023935E-05
      2.05955277250144E-17   1.00000000000000E+00   1.00000000000000E+00   0.00000000000000E+00   0.00000000000000E+00
      8.99960169616111E-05  -7.03180535234830E-23   8.99960169616111E-05   3.81902859906121E-16
      2.50000000000000E-01
      2.50000000000000E-01   2.50000000000000E-01   0.00000000000000E+00   0.00000000000000E+00   0.00000000000000E+00
      0.00000000000000E+00   0.00000000000000E+00  -3.73407611409760E-16   0.00000000000000E+00   0.00000000000000E+00
      0.00000000000000E+00   0.00000000000000E+00  -1.25280835711149E-04   3.86747509771449E-23  -1.25280835711149E-04
      1.44376322397864E-17   1.00000000000000E+00   1.00000000000000E+00   0.00000000000000E+00   0.00000000000000E+00
      1.25280921974033E-04  -6.61169688000329E-23   1.25280921974033E-04   3.76270776426406E-16
      2.66666666666667E-01
      2.66666666666667E-01   2.66666666666667E-01   0.00000000000000E+00   0.00000000000000E+00   0.00000000000000E+00
      0.00000000000000E+00   0.00000000000000E+00  -3.56920527324022E-16   0.00000000000000E+00   0.00000000000000E+00
      0.00000000000000E+00   0.00000000000000E+00  -1.66089580795605E-04   2.20750133637595E-23  -1.66089580795605E-04
      8.33761784509873E-18   1.00000000000000E+00   1.00000000000000E+00   0.00000000000000E+00   0.00000000000000E+00
      1.66089616006651E-04   8.94164926372505E-24   1.66089616006651E-04   3.70632385443175E-16
      2.83333333333333E-01
      2.83333333333333E-01   2.83333333333333E-01   0.00000000000000E+00   0.00000000000000E+00   0.00000000000000E+00
      0.00000000000000E+00   0.00000000000000E+00  -3.39748268784429E-16   0.00000000000000E+00   0.00000000000000E+00
      0.00000000000000E+00   0.00000000000000E+00  -2.13739861716983E-04   3.36694933843313E-24  -2.13739861716983E-04
      2.30590443419504E-18   1.00000000000000E+00   1.00000000000000E+00   0.00000000000000E+00   0.00000000000000E+00
      2.13739913527601E-04   2.23561463260332E-24   2.13739913527601E-04   3.64987507562879E-16
      3.00000000000000E-01
      3.00000000000000E-01   3.00000000000000E-01   0.00000000000000E+00   0.00000000000000E+00   0.00000000000000E+00
      0.00000000000000E+00   0.00000000000000E+00  -3.21929539056091E-16   0.00000000000000E+00   0.00000000000000E+00
      0.00000000000000E+00   0.00000000000000E+00  -2.67853928855430E-04  -4.58747157644965E-25  -2.67853928855430E-04
     -3.66382756763560E-18   1.00000000000000E+00   1.00000000000000E+00   0.00000000000000E+00   0.00000000000000E+00
      2.67853956135133E-04   5.83946565753151E-25   2.67853956135133E-04   3.59335430066243E-16
      3.16666666666667E-01
      3.16666666666667E-01   3.16666666666667E-01   0.00000000000000E+00   0.00000000000000E+00   0.00000000000000E+00
      0.00000000000000E+00   0.00000000000000E+00  -3.03510538983580E-16   0.00000000000000E+00   0.00000000000000E+00
      0.00000000000000E+00   0.00000000000000E+00  -3.27934433317011E-04  -8.53039734717707E-25  -3.27934433317011E-04
     -9.57777900510250E-18   1.00000000000000E+00   1.00000000000000E+00   0.00000000000000E+00   0.00000000000000E+00
      3.27934449752589E-04   1.24044754072283E-25   3.27934449752589E-04   3.53675406172388E-16
      3.33333333333333E-01
      3.33333333333333E-01   3.33333333333333E-01   0.00000000000000E+00   0.00000000000000E+00   0.00000000000000E+00
      0.00000000000000E+00   0.00000000000000E+00  -2.84536860660327E-16   0.00000000000000E+00   0.00000000000000E+00
      0.00000000000000E+00   0.00000000000000E+00  -3.93457982300371E-04  -2.39652943303867E-24  -3.93457982300371E-04
     -1.54418273473026E-17   1.00000000000000E+00   1.00000000000000E+00   0.00000000000000E+00   0.00000000000000E+00
      3.93457992865367E-04   1.15078808835345E-26   3.93457992865367E-04   3.48006730727968E-16
      3.50000000000000E-01
      3.50000000000000E-01   3.50000000000000E-01   0.00000000000000E+00   0.00000000000000E+00   0.00000000000000E+00
      0.00000000000000E+00   0.00000000000000E+00  -2.65052032203262E-16   0.00000000000000E+00   0.00000000000000E+00
      0.00000000000000E+00   0.00000000000000E+00  -4.63923879378600E-04  -2.37152178880464E-24  -4.63923879378600E-04
     -2.12612970002624E-17   1.00000000000000E+00   1.00000000000000E+00   0.00000000000000E+00   0.00000000000000E+00
      4.63923886552928E-04  -5.37243419281667E-27   4.63923886552928E-04   3.42328711540235E-16
      3.66666666666667E-01
      3.66666666666667E-01   3.66666666666667E-01   0.00000000000000E+00   0.00000000000000E+00   0.00000000000000E+00
      0.00000000000000E+00   0.00000000000000E+00  -2.45095832215274E-16   0.00000000000000E+00   0.00000000000000E+00
      0.00000000000000E+00   0.00000000000000E+00  -5.38868386812320E-04   2.55877078359234E-25  -5.38868386812320E-04
     -2.70410057678341E-17   1.00000000000000E+00   1.00000000000000E+00   0.00000000000000E+00   0.00000000000000E+00
      5.38868391913352E-04  -4.68071106403478E-27   5.38868391913352E-04   3.36640703894170E-16
      3.83333333333333E-01
      3.83333333333333E-01   3.83333333333333E-01   0.00000000000000E+00   0.00000000000000E+00   0.00000000000000E+00
      0.00000000000000E+00   0.00000000000000E+00  -2.24704757375403E-16   0.00000000000000E+00   0.00000000000000E+00
      0.00000000000000E+00   0.00000000000000E+00  -6.17866581166706E-04  -1.38565670359477E-25  -6.17866581166706E-04
     -3.27852247975937E-17   1.00000000000000E+00   1.00000000000000E+00   0.00000000000000E+00   0.00000000000000E+00
      6.17866629546647E-04   6.39411630540320E-26   6.17866629546647E-04   3.30942119879208E-16
      4.00000000000000E-01
      4.00000000000000E-01   4.00000000000000E-01   0.00000000000000E+00   0.00000000000000E+00   0.00000000000000E+00
      0.00000000000000E+00   0.00000000000000E+00  -2.03912330667996E-16   0.00000000000000E+00   0.00000000000000E+00
      0.00000000000000E+00   0.00000000000000E+00  -7.00532473978441E-04  -7.70918553287164E-26  -7.00532473978441E-04
     -3.84978043209263E-17   1.00000000000000E+00   1.00000000000000E+00   0.00000000000000E+00   0.00000000000000E+00
      7.00532476851960E-04  -5.48586785676742E-27   7.00532476851960E-04   3.25232401176420E-16
      4.16666666666667E-01
      4.16666666666667E-01   4.16666666666667E-01   0.00000000000000E+00   0.00000000000000E+00   0.00000000000000E+00
      0.00000000000000E+00   0.00000000000000E+00  -1.82748986708773E-16   0.00000000000000E+00   0.00000000000000E+00
      0.00000000000000E+00   0.00000000000000E+00  -7.86512572412087E-04   1.43255482917225E-25  -7.86512572412087E-04
     -4.41822118398012E-17   1.00000000000000E+00   1.00000000000000E+00   0.00000000000000E+00   0.00000000000000E+00
      7.86512574667206E-04  -5.39491420279063E-27   7.86512574667206E-04   3.19511093582175E-16
      4.33333333333333E-01
      4.33333333333333E-01   4.33333333333333E-01   0.00000000000000E+00   0.00000000000000E+00   0.00000000000000E+00
      0.00000000000000E+00   0.00000000000000E+00  -1.61243387420552E-16   0.00000000000000E+00   0.00000000000000E+00
      0.00000000000000E+00   0.00000000000000E+00  -8.75485109097108E-04   7.00812219040906E-26  -8.75485109097108E-04
     -4.98416061895029E-17   1.00000000000000E+00   1.00000000000000E+00   0.00000000000000E+00   0.00000000000000E+00
      8.75485110898294E-04  -4.40152988106921E-27   8.75485110898294E-04   3.13777747842648E-16
      4.50000000000000E-01
      4.50000000000000E-01   4.50000000000000E-01   0.00000000000000E+00   0.00000000000000E+00   0.00000000000000E+00
      0.00000000000000E+00   0.00000000000000E+00  -1.39421229506486E-16   0.00000000000000E+00   0.00000000000000E+00
      0.00000000000000E+00   0.00000000000000E+00  -9.67152360514238E-04   2.40759593650304E-26  -9.67152360514238E-04
     -5.54788684823481E-17   1.00000000000000E+00   1.00000000000000E+00   0.00000000000000E+00   0.00000000000000E+00
      9.67152361981845E-04  -3.16260714549607E-27   9.67152361981845E-04   3.08032086350225E-16
      4.66666666666667E-01
      4.66666666666667E-01   4.66666666666667E-01   0.00000000000000E+00   0.00000000000000E+00   0.00000000000000E+00
      0.00000000000000E+00   0.00000000000000E+00  -1.17307016259218E-16   0.00000000000000E+00   0.00000000000000E+00
      0.00000000000000E+00   0.00000000000000E+00  -1.06124180780051E-03   6.42492046774949E-27  -1.06124180780051E-03
     -6.10966438294480E-17   1.00000000000000E+00   1.00000000000000E+00   0.00000000000000E+00   0.00000000000000E+00
      1.06124180901127E-03  -2.14473639761732E-27   1.06124180901127E-03   3.02273834668505E-16
      4.83333333333333E-01
      4.83333333333333E-01   4.83333333333333E-01   0.00000000000000E+00   0.00000000000000E+00   0.00000000000000E+00
      0.00000000000000E+00   0.00000000000000E+00  -9.49235018296449E-17   0.00000000000000E+00   0.00000000000000E+00
      0.00000000000000E+00   0.00000000000000E+00  -1.15750153088726E-03   2.29799256351324E-27  -1.15750153088726E-03
     -6.66973475085933E-17   1.00000000000000E+00   1.00000000000000E+00   0.00000000000000E+00   0.00000000000000E+00
      1.15750153189774E-03  -1.33229619146245E-27   1.15750153189774E-03   2.96502800389437E-16
      5.00000000000000E-01
      5.00000000000000E-01   5.00000000000000E-01   0.00000000000000E+00   0.00000000000000E+00   0.00000000000000E+00
      0.00000000000000E+00   0.00000000000000E+00  -7.22915741226031E-17   0.00000000000000E+00   0.00000000000000E+00
      0.00000000000000E+00   0.00000000000000E+00  -1.25569978859734E-03   5.19020456306821E-28  -1.25569978859734E-03
     -7.22832220568250E-17   1.00000000000000E+00   1.00000000000000E+00   0.00000000000000E+00   0.00000000000000E+00
      1.25569978944693E-03  -7.07674582579331E-28   1.25569978944693E-03   2.90718882069817E-16
      5.16666666666667E-01
      5.16666666666667E-01   5.16666666666667E-01   0.00000000000000E+00   0.00000000000000E+00   0.00000000000000E+00
      0.00000000000000E+00   0.00000000000000E+00  -4.94307168553645E-17   0.00000000000000E+00   0.00000000000000E+00
      0.00000000000000E+00   0.00000000000000E+00  -1.35562305140368E-03  -1.09926442112158E-28  -1.35562305140368E-03
     -7.78563165522517E-17   1.00000000000000E+00   1.00000000000000E+00   0.00000000000000E+00   0.00000000000000E+00
      1.35562305212346E-03  -3.20627845715884E-28   1.35562305212346E-03   2.84922047601401E-16
      5.33333333333333E-01
      5.33333333333333E-01   5.33333333333333E-01   0.00000000000000E+00   0.00000000000000E+00   0.00000000000000E+00
      0.00000000000000E+00   0.00000000000000E+00  -2.63589235778986E-17   0.00000000000000E+00   0.00000000000000E+00
      0.00000000000000E+00   0.00000000000000E+00  -1.45707476777987E-03  -1.23496206090302E-28  -1.45707476777987E-03
     -8.34185033205284E-17   1.00000000000000E+00   1.00000000000000E+00   0.00000000000000E+00   0.00000000000000E+00
      1.45707476839231E-03  -1.30600220242189E-28   1.45707476839231E-03   2.79112331647969E-16
      5.50000000000000E-01
      5.50000000000000E-01   5.50000000000000E-01   0.00000000000000E+00   0.00000000000000E+00   0.00000000000000E+00
      0.00000000000000E+00   0.00000000000000E+00  -3.09280187836753E-18   0.00000000000000E+00   0.00000000000000E+00
      0.00000000000000E+00   0.00000000000000E+00  -1.55987442951629E-03  -1.88227612703868E-28  -1.55987442951629E-03
     -8.89714873064938E-17   1.00000000000000E+00   1.00000000000000E+00   0.00000000000000E+00   0.00000000000000E+00
      1.55987443004046E-03  -5.71933128304650E-29   1.55987443004046E-03   2.73289822490984E-16
      5.66666666666667E-01
      5.66666666666667E-01   5.66666666666667E-01   0.00000000000000E+00   0.00000000000000E+00   0.00000000000000E+00
      0.00000000000000E+00   0.00000000000000E+00   2.03525582347615E-17   0.00000000000000E+00   0.00000000000000E+00
      0.00000000000000E+00   0.00000000000000E+00  -1.66385647309435E-03  -1.33470024893601E-28  -1.66385647309435E-03
     -9.45168205946491E-17   1.00000000000000E+00   1.00000000000000E+00   0.00000000000000E+00   0.00000000000000E+00
      1.66385647354530E-03  -3.01483302238316E-29   1.66385647354530E-03   2.67454691445093E-16
      5.83333333333333E-01
      5.83333333333333E-01   5.83333333333333E-01   0.00000000000000E+00   0.00000000000000E+00   0.00000000000000E+00
      0.00000000000000E+00   0.00000000000000E+00   4.39631282751293E-17   0.00000000000000E+00   0.00000000000000E+00
      0.00000000000000E+00   0.00000000000000E+00  -1.76886974946792E-03  -9.95749509451157E-29  -1.76886974946792E-03
     -1.00055901862920E-16   1.00000000000000E+00   1.00000000000000E+00   0.00000000000000E+00   0.00000000000000E+00
      1.76886974985637E-03  -2.29045340472617E-29   1.76886974985637E-03   2.61607147998280E-16
      6.00000000000000E-01
      6.00000000000000E-01   6.00000000000000E-01   0.00000000000000E+00   0.00000000000000E+00   0.00000000000000E+00
      0.00000000000000E+00   0.00000000000000E+00   6.77262680844467E-17   0.00000000000000E+00   0.00000000000000E+00
      0.00000000000000E+00   0.00000000000000E+00  -1.87477490170644E-03  -7.30502319381451E-29  -1.87477490170644E-03
     -1.05589968619403E-16   1.00000000000000E+00   1.00000000000000E+00   0.00000000000000E+00   0.00000000000000E+00
      1.87477490204198E-03  -2.05017961534272E-29   1.87477490204198E-03   2.55747511682967E-16
      6.16666666666667E-01
      6.16666666666667E-01   6.16666666666667E-01   0.00000000000000E+00   0.00000000000000E+00   0.00000000000000E+00
      0.00000000000000E+00   0.00000000000000E+00   9.16301113338237E-17   0.00000000000000E+00   0.00000000000000E+00
      0.00000000000000E+00   0.00000000000000E+00  -1.98144723833557E-03  -5.34373915497276E-29  -1.98144723833557E-03
     -1.11120165297639E-16   1.00000000000000E+00   1.00000000000000E+00   0.00000000000000E+00   0.00000000000000E+00
      1.98144723862598E-03  -1.64090643789344E-29   1.98144723862598E-03   2.49875965382356E-16
      6.33333333333334E-01
      6.33333333333334E-01   6.33333333333334E-01   0.00000000000000E+00   0.00000000000000E+00   0.00000000000000E+00
      0.00000000000000E+00   0.00000000000000E+00   1.15663845703922E-16   0.00000000000000E+00   0.00000000000000E+00
      0.00000000000000E+00   0.00000000000000E+00  -2.08877258264192E-03  -2.99653487779309E-29  -2.08877258264192E-03
     -1.16647494691789E-16   1.00000000000000E+00   1.00000000000000E+00   0.00000000000000E+00   0.00000000000000E+00
      2.08877258289380E-03  -1.03763609401162E-29   2.08877258289380E-03   2.43992776458848E-16
      6.50000000000000E-01
      6.50000000000000E-01   6.50000000000000E-01   0.00000000000000E+00   0.00000000000000E+00   0.00000000000000E+00
      0.00000000000000E+00   0.00000000000000E+00   1.39818405496738E-16   0.00000000000000E+00   0.00000000000000E+00
      0.00000000000000E+00   0.00000000000000E+00  -2.19664523831216E-03  -6.95276030719461E-30  -2.19664523831216E-03
     -1.22172834911888E-16   1.00000000000000E+00   1.00000000000000E+00   0.00000000000000E+00   0.00000000000000E+00
      2.19664523853089E-03  -6.90792736355294E-30   2.19664523853089E-03   2.38098456354409E-16
      6.66666666666667E-01
      6.66666666666667E-01   6.66666666666667E-01   0.00000000000000E+00   0.00000000000000E+00   0.00000000000000E+00
      0.00000000000000E+00   0.00000000000000E+00   1.64084854841024E-16   0.00000000000000E+00   0.00000000000000E+00
      0.00000000000000E+00   0.00000000000000E+00  -2.30497122442408E-03   7.18636703587572E-30  -2.30497122442408E-03
     -1.27696972820648E-16   1.00000000000000E+00   1.00000000000000E+00   0.00000000000000E+00   0.00000000000000E+00
      2.30497122461422E-03  -3.39118995431823E-30   2.30497122461422E-03   2.32193360920285E-16
      6.83333333333334E-01
      6.83333333333334E-01   6.83333333333334E-01   0.00000000000000E+00   0.00000000000000E+00   0.00000000000000E+00
      0.00000000000000E+00   0.00000000000000E+00   1.88454839868511E-16   0.00000000000000E+00   0.00000000000000E+00
      0.00000000000000E+00   0.00000000000000E+00  -2.41366533780906E-03   1.41338624177152E-29  -2.41366533780906E-03
     -1.33220595443139E-16   1.00000000000000E+00   1.00000000000000E+00   0.00000000000000E+00   0.00000000000000E+00
      2.41366533797438E-03  -1.84969750155619E-30   2.41366533797438E-03   2.26277660449204E-16
      7.00000000000001E-01
      7.00000000000001E-01   7.00000000000001E-01   0.00000000000000E+00   0.00000000000000E+00   0.00000000000000E+00
      0.00000000000000E+00   0.00000000000000E+00   2.12921779326155E-16   0.00000000000000E+00   0.00000000000000E+00
      0.00000000000000E+00   0.00000000000000E+00  -2.52264737498131E-03   1.69421646211032E-29  -2.52264737498131E-03
     -1.38744273256248E-16   1.00000000000000E+00   1.00000000000000E+00   0.00000000000000E+00   0.00000000000000E+00
      2.52264737512548E-03   4.08565420366164E-31   2.52264737512548E-03   2.20352102727049E-16
      7.16666666666667E-01
      7.16666666666667E-01   7.16666666666667E-01   0.00000000000000E+00   0.00000000000000E+00   0.00000000000000E+00
      0.00000000000000E+00   0.00000000000000E+00   2.37478792431194E-16   0.00000000000000E+00   0.00000000000000E+00
      0.00000000000000E+00   0.00000000000000E+00  -2.63184830728810E-03   1.85284517831004E-29  -2.63184830728810E-03
     -1.44268543769479E-16   1.00000000000000E+00   1.00000000000000E+00   0.00000000000000E+00   0.00000000000000E+00
      2.63184830741357E-03   1.07151847432134E-30   2.63184830741357E-03   2.14416912970831E-16
      7.33333333333334E-01
      7.33333333333334E-01   7.33333333333334E-01   0.00000000000000E+00   0.00000000000000E+00   0.00000000000000E+00
      0.00000000000000E+00   0.00000000000000E+00   2.62119841357296E-16   0.00000000000000E+00   0.00000000000000E+00
      0.00000000000000E+00   0.00000000000000E+00  -2.74120498201033E-03   9.41128769197130E-30  -2.74120498201033E-03
     -1.49793863832460E-16   1.00000000000000E+00   1.00000000000000E+00   0.00000000000000E+00   0.00000000000000E+00
      2.74120498211976E-03   1.73163184923692E-30   2.74120498211976E-03   2.08472468662230E-16
      7.50000000000001E-01
      7.50000000000001E-01   7.50000000000001E-01   0.00000000000000E+00   0.00000000000000E+00   0.00000000000000E+00
      0.00000000000000E+00   0.00000000000000E+00   2.86840613736881E-16   0.00000000000000E+00   0.00000000000000E+00
      0.00000000000000E+00   0.00000000000000E+00  -2.85065763474049E-03   1.75761270157658E-29  -2.85065763474049E-03
     -1.55320611682937E-16   1.00000000000000E+00   1.00000000000000E+00   0.00000000000000E+00   0.00000000000000E+00
      2.85065763483571E-03  -1.43093247690420E-30   2.85065763483571E-03   2.02519894782642E-16
      7.66666666666667E-01
      7.66666666666667E-01   7.66666666666667E-01   0.00000000000000E+00   0.00000000000000E+00   0.00000000000000E+00
      0.00000000000000E+00   0.00000000000000E+00   3.11636166262060E-16   0.00000000000000E+00   0.00000000000000E+00
      0.00000000000000E+00   0.00000000000000E+00  -2.96015540104884E-03  -6.62156604613334E-26  -2.96015540104884E-03
     -1.60849117019148E-16   1.00000000000000E+00   1.00000000000000E+00   0.00000000000000E+00   0.00000000000000E+00
      2.96015477113911E-03  -1.01378276928398E-24   2.96015477113911E-03   1.96559041552788E-16
      7.83333333333334E-01
      7.83333333333334E-01   7.83333333333334E-01   0.00000000000000E+00   0.00000000000000E+00   0.00000000000000E+00
      0.00000000000000E+00   0.00000000000000E+00   3.36505033610637E-16   0.00000000000000E+00   0.00000000000000E+00
      0.00000000000000E+00   0.00000000000000E+00  -3.06964386578267E-03  -5.68213038315773E-26  -3.06964386578267E-03
     -1.66379640598296E-16   1.00000000000000E+00   1.00000000000000E+00   0.00000000000000E+00   0.00000000000000E+00
      3.06964342476382E-03  -9.16019936915866E-25   3.06964342476382E-03   1.90591760703615E-16
      8.00000000000001E-01
      8.00000000000001E-01   8.00000000000001E-01   0.00000000000000E+00   0.00000000000000E+00   0.00000000000000E+00
      0.00000000000000E+00   0.00000000000000E+00   3.61441034109245E-16   0.00000000000000E+00   0.00000000000000E+00