DF-ISE text

Info {
  version   = 1.0
  type      = xyplot
  datasets  = [
    "time"
    "gate OuterVoltage" "gate InnerVoltage" "gate QuasiFermiPotential" "gate DisplacementCurrent" "gate eCurrent"
    "gate hCurrent" "gate TotalCurrent" "gate Charge" "source OuterVoltage" "source InnerVoltage"
    "source QuasiFermiPotential" "source DisplacementCurrent" "source eCurrent" "source hCurrent" "source TotalCurrent"
    "source Charge" "drain OuterVoltage" "drain InnerVoltage" "drain QuasiFermiPotential" "drain DisplacementCurrent"
    "drain eCurrent" "drain hCurrent" "drain TotalCurrent" "drain Charge" ]
  functions = [
    Time
    OuterVoltage InnerVoltage QuasiFermiPotential DisplacementCurrent eCurrent
    hCurrent TotalCurrent Charge OuterVoltage InnerVoltage
    QuasiFermiPotential DisplacementCurrent eCurrent hCurrent TotalCurrent
    Charge OuterVoltage InnerVoltage QuasiFermiPotential DisplacementCurrent
    eCurrent hCurrent TotalCurrent Charge ]
}

Data {
      0.00000000000000E+00
      0.00000000000000E+00   0.00000000000000E+00   0.00000000000000E+00   0.00000000000000E+00   0.00000000000000E+00
      0.00000000000000E+00   0.00000000000000E+00  -1.87776037072698E-16   0.00000000000000E+00   0.00000000000000E+00
      0.00000000000000E+00   0.00000000000000E+00  -2.40847317564974E-07  -2.95462043503931E-27  -2.40847317564974E-07
      8.47752510749367E-17   5.00000000000000E-02   5.00000000000000E-02   0.00000000000000E+00   0.00000000000000E+00
      2.40847317558024E-07   4.08169732677168E-27   2.40847317558024E-07   1.04347688051667E-16
      1.66666666666667E-02
      1.30000000000000E-02   1.30000000000000E-02   0.00000000000000E+00   0.00000000000000E+00   0.00000000000000E+00
      0.00000000000000E+00   0.00000000000000E+00  -1.77713998058742E-16   0.00000000000000E+00   0.00000000000000E+00
      0.00000000000000E+00   0.00000000000000E+00  -3.81904266061442E-07  -2.15550761946277E-26  -3.81904266061442E-07
      7.97534794437531E-17   5.00000000000000E-02   5.00000000000000E-02   0.00000000000000E+00   0.00000000000000E+00
      3.81905329329981E-07  -1.43850355527970E-26   3.81905329329981E-07   9.93759093233905E-17
      3.33333333333333E-02
      2.60000000000000E-02   2.60000000000000E-02   0.00000000000000E+00   0.00000000000000E+00   0.00000000000000E+00
      0.00000000000000E+00   0.00000000000000E+00  -1.67587955660868E-16   0.00000000000000E+00   0.00000000000000E+00
      0.00000000000000E+00   0.00000000000000E+00  -6.04588389851271E-07  -5.65700975248724E-26  -6.04588389851271E-07
      7.47139994816243E-17   5.00000000000000E-02   5.00000000000000E-02   0.00000000000000E+00   0.00000000000000E+00
      6.04590279599027E-07  -4.26531447717503E-26   6.04590279599027E-07   9.43848321400939E-17
      5.00000000000000E-02
      3.90000000000000E-02   3.90000000000000E-02   0.00000000000000E+00   0.00000000000000E+00   0.00000000000000E+00
      0.00000000000000E+00   0.00000000000000E+00  -1.57387224252274E-16   0.00000000000000E+00   0.00000000000000E+00
      0.00000000000000E+00   0.00000000000000E+00  -9.55152303910299E-07  -6.84099729140693E-26  -9.55152303910299E-07
      6.96577774305040E-17   5.00000000000000E-02   5.00000000000000E-02   0.00000000000000E+00   0.00000000000000E+00
      9.55152319073641E-07  -5.39304273562093E-26   9.55152319073641E-07   8.93738758770789E-17
      6.66666666666667E-02
      5.20000000000000E-02   5.20000000000000E-02   0.00000000000000E+00   0.00000000000000E+00   0.00000000000000E+00
      0.00000000000000E+00   0.00000000000000E+00  -1.47097347064810E-16   0.00000000000000E+00   0.00000000000000E+00
      0.00000000000000E+00   0.00000000000000E+00  -1.50498868498519E-06  -4.75629024650979E-27  -1.50498868498519E-06
      6.45864692744641E-17   5.00000000000000E-02   5.00000000000000E-02   0.00000000000000E+00   0.00000000000000E+00
      1.50498869748938E-06  -1.10419850218500E-26   1.50498869748938E-06   8.43426019885772E-17
      8.33333333333333E-02
      6.50000000000000E-02   6.50000000000000E-02   0.00000000000000E+00   0.00000000000000E+00   0.00000000000000E+00
      0.00000000000000E+00   0.00000000000000E+00  -1.36698615667070E-16   0.00000000000000E+00   0.00000000000000E+00
      0.00000000000000E+00   0.00000000000000E+00  -2.36312134802625E-06  -1.08111732115465E-26  -2.36312134802625E-06
      5.95026450228480E-17   5.00000000000000E-02   5.00000000000000E-02   0.00000000000000E+00   0.00000000000000E+00
      2.36312137406281E-06  -7.79015286159594E-27   2.36312137406281E-06   7.92908093590354E-17
      1.00000000000000E-01
      7.80000000000000E-02   7.80000000000000E-02   0.00000000000000E+00   0.00000000000000E+00   0.00000000000000E+00
      0.00000000000000E+00   0.00000000000000E+00  -1.26164148378157E-16   0.00000000000000E+00   0.00000000000000E+00
      0.00000000000000E+00   0.00000000000000E+00  -3.69352296079720E-06   1.50106741325327E-27  -3.69352296079720E-06
      5.44100421047799E-17   5.00000000000000E-02   5.00000000000000E-02   0.00000000000000E+00   0.00000000000000E+00
      3.69352305669705E-06  -3.94003685626436E-26   3.69352305669705E-06   7.42186706041399E-17
      1.16666666666667E-01
      9.10000000000000E-02   9.10000000000000E-02   0.00000000000000E+00   0.00000000000000E+00   0.00000000000000E+00
      0.00000000000000E+00   0.00000000000000E+00  -1.15457581704432E-16   0.00000000000000E+00   0.00000000000000E+00
      0.00000000000000E+00   0.00000000000000E+00  -5.73770769088576E-06  -6.61514857676627E-26  -5.73770769088576E-06
      4.93138134551041E-17   5.00000000000000E-02   5.00000000000000E-02   0.00000000000000E+00   0.00000000000000E+00
      5.73770803667641E-06  -4.75387991382923E-26   5.73770803667641E-06   6.91269179454892E-17
      1.33333333333333E-01
      1.04000000000000E-01   1.04000000000000E-01   0.00000000000000E+00   0.00000000000000E+00   0.00000000000000E+00
      0.00000000000000E+00   0.00000000000000E+00  -1.04530654641820E-16   0.00000000000000E+00   0.00000000000000E+00
      0.00000000000000E+00   0.00000000000000E+00  -8.84153300851628E-06  -1.83780252411269E-25  -8.84153300851628E-06
      4.42207026782011E-17   5.00000000000000E-02   5.00000000000000E-02   0.00000000000000E+00   0.00000000000000E+00
      8.84153410240010E-06  -1.23125585374423E-25   8.84153410240010E-06   6.40170803587593E-17
      1.50000000000000E-01
      1.17000000000000E-01   1.17000000000000E-01   0.00000000000000E+00   0.00000000000000E+00   0.00000000000000E+00
      0.00000000000000E+00   0.00000000000000E+00  -9.33213035367012E-17   0.00000000000000E+00   0.00000000000000E+00
      0.00000000000000E+00   0.00000000000000E+00  -1.34830717559861E-05   5.84851460005373E-26  -1.34830717559861E-05
      3.91390415302118E-17   5.00000000000000E-02   5.00000000000000E-02   0.00000000000000E+00   0.00000000000000E+00
      1.34830747073004E-05  -3.44643073076334E-25   1.34830747073004E-05   5.88917554800022E-17
      1.66666666666667E-01
      1.30000000000000E-01   1.30000000000000E-01   0.00000000000000E+00   0.00000000000000E+00   0.00000000000000E+00
      0.00000000000000E+00   0.00000000000000E+00  -8.17530637698746E-17   0.00000000000000E+00   0.00000000000000E+00
      0.00000000000000E+00   0.00000000000000E+00  -2.03004445527536E-05   2.80788811169387E-26  -2.03004445527536E-05
      3.40784605978199E-17   5.00000000000000E-02   5.00000000000000E-02   0.00000000000000E+00   0.00000000000000E+00
      2.03004510834074E-05   1.66403747499263E-26   2.03004510834074E-05   5.37548798353017E-17
      1.83333333333333E-01
      1.43000000000000E-01   1.43000000000000E-01   0.00000000000000E+00   0.00000000000000E+00   0.00000000000000E+00
      0.00000000000000E+00   0.00000000000000E+00  -6.97393666895148E-17   0.00000000000000E+00   0.00000000000000E+00
      0.00000000000000E+00   0.00000000000000E+00  -3.00445006822925E-05  -7.35798513079521E-26  -3.00445006822925E-05
      2.90491980330631E-17   5.00000000000000E-02   5.00000000000000E-02   0.00000000000000E+00   0.00000000000000E+00
      3.00445195731331E-05  -3.93098261920915E-26   3.00445195731331E-05   4.86117073128934E-17
      2.00000000000000E-01
      1.56000000000000E-01   1.56000000000000E-01   0.00000000000000E+00   0.00000000000000E+00   0.00000000000000E+00
      0.00000000000000E+00   0.00000000000000E+00  -5.72160611700893E-17   0.00000000000000E+00   0.00000000000000E+00
      0.00000000000000E+00   0.00000000000000E+00  -4.28962018229839E-05  -5.41626532948503E-25  -4.28962018229839E-05
      2.40601999604664E-17   5.00000000000000E-02   5.00000000000000E-02   0.00000000000000E+00   0.00000000000000E+00
      4.28962382638970E-05  -2.56176684836994E-25   4.28962382638970E-05   4.34666113652269E-17
      2.16666666666667E-01
      1.69000000000000E-01   1.69000000000000E-01   0.00000000000000E+00   0.00000000000000E+00   0.00000000000000E+00
      0.00000000000000E+00   0.00000000000000E+00  -4.41163327500845E-17   0.00000000000000E+00   0.00000000000000E+00
      0.00000000000000E+00   0.00000000000000E+00  -5.93323436767431E-05  -1.77346784220865E-24  -5.93323436767431E-05
      1.91181336333278E-17   5.00000000000000E-02   5.00000000000000E-02   0.00000000000000E+00   0.00000000000000E+00
      5.93323892833971E-05  -7.23213498489989E-25   5.93323892833971E-05   3.83253949878026E-17
      2.33333333333333E-01
      1.82000000000000E-01   1.82000000000000E-01   0.00000000000000E+00   0.00000000000000E+00   0.00000000000000E+00
      0.00000000000000E+00   0.00000000000000E+00  -3.04087748425114E-17   0.00000000000000E+00   0.00000000000000E+00
      0.00000000000000E+00   0.00000000000000E+00  -7.94566768743384E-05  -3.43934467311935E-24  -7.94566768743384E-05
      1.42203683324267E-17   5.00000000000000E-02   5.00000000000000E-02   0.00000000000000E+00   0.00000000000000E+00
      7.94566785477847E-05  -1.53108804038823E-24   7.94566785477847E-05   3.31931807964937E-17
      2.50000000000000E-01
      1.95000000000000E-01   1.95000000000000E-01   0.00000000000000E+00   0.00000000000000E+00   0.00000000000000E+00
      0.00000000000000E+00   0.00000000000000E+00  -1.60099718624151E-17   0.00000000000000E+00   0.00000000000000E+00
      0.00000000000000E+00   0.00000000000000E+00  -1.03601981904236E-04  -5.13404476830604E-24  -1.03601981904236E-04
      9.37506187713550E-18   5.00000000000000E-02   5.00000000000000E-02   0.00000000000000E+00   0.00000000000000E+00
      1.03602000673362E-04  -2.55688408502221E-24   1.03602000673362E-04   2.80769155678245E-17
      2.66666666666667E-01
      2.08000000000000E-01   2.08000000000000E-01   0.00000000000000E+00   0.00000000000000E+00   0.00000000000000E+00
      0.00000000000000E+00   0.00000000000000E+00  -8.87929246621823E-19   0.00000000000000E+00   0.00000000000000E+00
      0.00000000000000E+00   0.00000000000000E+00  -1.31533341784490E-04  -6.17483451064635E-24  -1.31533341784490E-04
      4.58172798861215E-18   5.00000000000000E-02   5.00000000000000E-02   0.00000000000000E+00   0.00000000000000E+00
      1.31533313659687E-04  -3.54738347538090E-24   1.31533313659687E-04   2.29830876873439E-17
      2.83333333333333E-01
      2.21000000000000E-01   2.21000000000000E-01   0.00000000000000E+00   0.00000000000000E+00   0.00000000000000E+00
      0.00000000000000E+00   0.00000000000000E+00   1.49942302371237E-17   0.00000000000000E+00   0.00000000000000E+00
      0.00000000000000E+00   0.00000000000000E+00  -1.62708121641739E-04  -5.60438892304417E-24  -1.62708121641739E-04
     -1.61542797170799E-19   5.00000000000000E-02   5.00000000000000E-02   0.00000000000000E+00   0.00000000000000E+00
      1.62708062197959E-04  -3.33600639195973E-24   1.62708062197959E-04   1.79272711495500E-17
      3.00000000000000E-01
      2.34000000000000E-01   2.34000000000000E-01   0.00000000000000E+00   0.00000000000000E+00   0.00000000000000E+00
      0.00000000000000E+00   0.00000000000000E+00   3.16043584177622E-17   0.00000000000000E+00   0.00000000000000E+00
      0.00000000000000E+00   0.00000000000000E+00  -1.96678295238201E-04  -3.43599678246383E-24  -1.96678295238201E-04
     -4.85779073289670E-18   5.00000000000000E-02   5.00000000000000E-02   0.00000000000000E+00   0.00000000000000E+00
      1.96678269633093E-04  -1.92663545134134E-24   1.96678269633093E-04   1.29037741748950E-17
      3.16666666666667E-01
      2.47000000000000E-01   2.47000000000000E-01   0.00000000000000E+00   0.00000000000000E+00   0.00000000000000E+00
      0.00000000000000E+00   0.00000000000000E+00   4.89106714392136E-17   0.00000000000000E+00   0.00000000000000E+00
      0.00000000000000E+00   0.00000000000000E+00  -2.32909065522572E-04  -9.27168511304040E-25  -2.32909065522572E-04
     -9.51043598041987E-18   5.00000000000000E-02   5.00000000000000E-02   0.00000000000000E+00   0.00000000000000E+00
      2.32909027991340E-04  -5.15113711613067E-25   2.32909027991340E-04   7.90907746612527E-18
      3.33333333333333E-01
      2.60000000000000E-01   2.60000000000000E-01   0.00000000000000E+00   0.00000000000000E+00   0.00000000000000E+00
      0.00000000000000E+00   0.00000000000000E+00   6.68872853316419E-17   0.00000000000000E+00   0.00000000000000E+00
      0.00000000000000E+00   0.00000000000000E+00  -2.70814180404936E-04   4.82629831183439E-25  -2.70814180404936E-04
     -1.41230134733569E-17   5.00000000000000E-02   5.00000000000000E-02   0.00000000000000E+00   0.00000000000000E+00
      2.70814164655833E-04   2.55806573566069E-25   2.70814164655833E-04   2.94268007755691E-18
      3.50000000000000E-01
      2.73000000000000E-01   2.73000000000000E-01   0.00000000000000E+00   0.00000000000000E+00   0.00000000000000E+00
      0.00000000000000E+00   0.00000000000000E+00   8.55013640355507E-17   0.00000000000000E+00   0.00000000000000E+00
      0.00000000000000E+00   0.00000000000000E+00  -3.09855819489085E-04   3.98092642686355E-25  -3.09855819489085E-04
     -1.86990623642598E-17   5.00000000000000E-02   5.00000000000000E-02   0.00000000000000E+00   0.00000000000000E+00
      3.09855804259726E-04   2.04658721717128E-25   3.09855804259726E-04  -1.99711844968515E-18
      3.66666666666667E-01
      2.86000000000000E-01   2.86000000000000E-01   0.00000000000000E+00   0.00000000000000E+00   0.00000000000000E+00
      0.00000000000000E+00   0.00000000000000E+00   1.04717158573875E-16   0.00000000000000E+00   0.00000000000000E+00
      0.00000000000000E+00   0.00000000000000E+00  -3.49556893142241E-04  -3.57899887297367E-25  -3.49556893142241E-04
     -2.32420660022630E-17   5.00000000000000E-02   5.00000000000000E-02   0.00000000000000E+00   0.00000000000000E+00
      3.49556882783516E-04  -2.22935124257852E-25   3.49556882783516E-04  -6.91265280872940E-18
      3.83333333333333E-01
      2.99000000000000E-01   2.99000000000000E-01   0.00000000000000E+00   0.00000000000000E+00   0.00000000000000E+00
      0.00000000000000E+00   0.00000000000000E+00   1.24497710494538E-16   0.00000000000000E+00   0.00000000000000E+00
      0.00000000000000E+00   0.00000000000000E+00  -3.89505574279736E-04  -5.97121176718273E-25  -3.89505574279736E-04
     -2.77553797378059E-17   5.00000000000000E-02   5.00000000000000E-02   0.00000000000000E+00   0.00000000000000E+00
      3.89505567195269E-04  -3.81763683152837E-25   3.89505567195269E-04  -1.18063427581776E-17
      4.00000000000000E-01
      3.12000000000000E-01   3.12000000000000E-01   0.00000000000000E+00   0.00000000000000E+00   0.00000000000000E+00
      0.00000000000000E+00   0.00000000000000E+00   1.44806577590526E-16   0.00000000000000E+00   0.00000000000000E+00
      0.00000000000000E+00   0.00000000000000E+00  -4.29350621344042E-04  -3.89497924598880E-25  -4.29350621344042E-04
     -3.22421926019147E-17   5.00000000000000E-02   5.00000000000000E-02   0.00000000000000E+00   0.00000000000000E+00
      4.29350616352290E-04  -2.62053837172759E-25   4.29350616352290E-04  -1.66806699815806E-17
      4.16666666666667E-01
      3.25000000000000E-01   3.25000000000000E-01   0.00000000000000E+00   0.00000000000000E+00   0.00000000000000E+00
      0.00000000000000E+00   0.00000000000000E+00   1.65608681780033E-16   0.00000000000000E+00   0.00000000000000E+00
      0.00000000000000E+00   0.00000000000000E+00  -4.68797977384202E-04  -1.51926369243542E-25  -4.68797977384202E-04
     -3.67055385192487E-17   5.00000000000000E-02   5.00000000000000E-02   0.00000000000000E+00   0.00000000000000E+00
      4.68797973692288E-04  -1.09893957152568E-25   4.68797973692288E-04  -2.15380097972462E-17
      4.33333333333333E-01
      3.38000000000000E-01   3.38000000000000E-01   0.00000000000000E+00   0.00000000000000E+00   0.00000000000000E+00
      0.00000000000000E+00   0.00000000000000E+00   1.86870577982577E-16   0.00000000000000E+00   0.00000000000000E+00
      0.00000000000000E+00   0.00000000000000E+00  -5.07603816638736E-04  -4.56341300389371E-26  -5.07603816638736E-04
     -4.11482421339330E-17   5.00000000000000E-02   5.00000000000000E-02   0.00000000000000E+00   0.00000000000000E+00
      5.07603813768404E-04  -2.98296374000522E-26   5.07603813768404E-04  -2.63805791629504E-17
      4.50000000000000E-01
      3.51000000000000E-01   3.51000000000000E-01   0.00000000000000E+00   0.00000000000000E+00   0.00000000000000E+00
      0.00000000000000E+00   0.00000000000000E+00   2.08560922716275E-16   0.00000000000000E+00   0.00000000000000E+00
      0.00000000000000E+00   0.00000000000000E+00  -5.45569889907855E-04  -2.26133082240916E-26  -5.45569889907855E-04
     -4.55729475175746E-17   5.00000000000000E-02   5.00000000000000E-02   0.00000000000000E+00   0.00000000000000E+00
      5.45569887571382E-04  -1.21867506916868E-26   5.45569887571382E-04  -3.12104567740248E-17
      4.66666666666667E-01
      3.64000000000000E-01   3.64000000000000E-01   0.00000000000000E+00   0.00000000000000E+00   0.00000000000000E+00
      0.00000000000000E+00   0.00000000000000E+00   2.30650248702456E-16   0.00000000000000E+00   0.00000000000000E+00
      0.00000000000000E+00   0.00000000000000E+00  -5.82538657745781E-04  -3.13662322781743E-27  -5.82538657745781E-04
     -4.99820828607160E-17   5.00000000000000E-02   5.00000000000000E-02   0.00000000000000E+00   0.00000000000000E+00
      5.82538655826975E-04   3.65960129643964E-27   5.82538655826975E-04  -3.60295277282450E-17
      4.83333333333333E-01
      3.77000000000000E-01   3.77000000000000E-01   0.00000000000000E+00   0.00000000000000E+00   0.00000000000000E+00
      0.00000000000000E+00   0.00000000000000E+00   2.53111237971535E-16   0.00000000000000E+00   0.00000000000000E+00
      0.00000000000000E+00   0.00000000000000E+00  -6.18389026747398E-04   5.40086636647366E-27  -6.18389026747398E-04
     -5.43778917787109E-17   5.00000000000000E-02   5.00000000000000E-02   0.00000000000000E+00   0.00000000000000E+00
      6.18389025110054E-04   1.09632452522428E-26   6.18389025110054E-04  -4.08395445094189E-17
      5.00000000000000E-01
      3.90000000000000E-01   3.90000000000000E-01   0.00000000000000E+00   0.00000000000000E+00   0.00000000000000E+00
      0.00000000000000E+00   0.00000000000000E+00   2.75918401201936E-16   0.00000000000000E+00   0.00000000000000E+00
      0.00000000000000E+00   0.00000000000000E+00  -6.53031203512137E-04   9.99815632661965E-27  -6.53031203512137E-04
     -5.87623995808305E-17   5.00000000000000E-02   5.00000000000000E-02   0.00000000000000E+00   0.00000000000000E+00
      6.53031202124364E-04   1.58955355237329E-26   6.53031202124364E-04  -4.56421014594270E-17
      5.16666666666667E-01
      4.03000000000000E-01   4.03000000000000E-01   0.00000000000000E+00   0.00000000000000E+00   0.00000000000000E+00
      0.00000000000000E+00   0.00000000000000E+00   2.99048131788914E-16   0.00000000000000E+00   0.00000000000000E+00
      0.00000000000000E+00   0.00000000000000E+00  -6.86404175565069E-04   1.21322701586773E-26  -6.86404175565069E-04
     -6.31374485084042E-17   5.00000000000000E-02   5.00000000000000E-02   0.00000000000000E+00   0.00000000000000E+00
      6.86404174339117E-04   1.51121280343394E-26   6.86404174339117E-04  -5.04386509236629E-17
      5.33333333333333E-01
      4.16000000000000E-01   4.16000000000000E-01   0.00000000000000E+00   0.00000000000000E+00   0.00000000000000E+00
      0.00000000000000E+00   0.00000000000000E+00   3.22478607052119E-16   0.00000000000000E+00   0.00000000000000E+00
      0.00000000000000E+00   0.00000000000000E+00  -7.18471567696329E-04   1.15752063197871E-26  -7.18471567696329E-04
     -6.75047003877754E-17   5.00000000000000E-02   5.00000000000000E-02   0.00000000000000E+00   0.00000000000000E+00
      7.18471566614879E-04   1.60546388719063E-26   7.18471566614879E-04  -5.52305184785366E-17
      5.50000000000000E-01
      4.29000000000000E-01   4.29000000000000E-01   0.00000000000000E+00   0.00000000000000E+00   0.00000000000000E+00
      0.00000000000000E+00   0.00000000000000E+00   3.46189647759713E-16   0.00000000000000E+00   0.00000000000000E+00
      0.00000000000000E+00   0.00000000000000E+00  -7.49216862460346E-04   1.18712134738495E-26  -7.49216862460346E-04
     -7.18656339696849E-17   5.00000000000000E-02   5.00000000000000E-02   0.00000000000000E+00   0.00000000000000E+00
      7.49216861556358E-04   1.57893859059500E-26   7.49216861556358E-04  -6.00189156326018E-17
      5.66666666666667E-01
      4.42000000000000E-01   4.42000000000000E-01   0.00000000000000E+00   0.00000000000000E+00   0.00000000000000E+00
      0.00000000000000E+00   0.00000000000000E+00   3.70162565939571E-16   0.00000000000000E+00   0.00000000000000E+00
      0.00000000000000E+00   0.00000000000000E+00  -7.78641572978166E-04   4.70161350190657E-27  -7.78641572978166E-04
     -7.62215640892118E-17   5.00000000000000E-02   5.00000000000000E-02   0.00000000000000E+00   0.00000000000000E+00
      7.78641572183884E-04   6.78820464315926E-27   7.78641572183884E-04  -6.48049242246836E-17
      5.83333333333333E-01
      4.55000000000000E-01   4.55000000000000E-01   0.00000000000000E+00   0.00000000000000E+00   0.00000000000000E+00
      0.00000000000000E+00   0.00000000000000E+00   3.94380148053910E-16   0.00000000000000E+00   0.00000000000000E+00
      0.00000000000000E+00   0.00000000000000E+00  -8.06760710690418E-04   2.94249928359366E-27  -8.06760710690418E-04
     -8.05736524563984E-17   5.00000000000000E-02   5.00000000000000E-02   0.00000000000000E+00   0.00000000000000E+00
      8.06760710008128E-04   4.25498951936561E-27   8.06760710008128E-04  -6.95895306191583E-17
      6.00000000000000E-01
      4.68000000000000E-01   4.68000000000000E-01   0.00000000000000E+00   0.00000000000000E+00   0.00000000000000E+00
      0.00000000000000E+00   0.00000000000000E+00   4.18826508839739E-16   0.00000000000000E+00   0.00000000000000E+00
      0.00000000000000E+00   0.00000000000000E+00  -8.33600597281244E-04   1.12977821688245E-27  -8.33600597281244E-04
     -8.49229209237385E-17   5.00000000000000E-02   5.00000000000000E-02   0.00000000000000E+00   0.00000000000000E+00
      8.33600596695028E-04   1.75430699991100E-27   8.33600596695028E-04  -7.43736184690555E-17
      6.16666666666667E-01
      4.81000000000000E-01   4.81000000000000E-01   0.00000000000000E+00   0.00000000000000E+00   0.00000000000000E+00
      0.00000000000000E+00   0.00000000000000E+00   4.43487018465700E-16   0.00000000000000E+00   0.00000000000000E+00
      0.00000000000000E+00   0.00000000000000E+00  -8.59195938259126E-04  -7.86382488238823E-28  -8.59195938259126E-04
     -8.92702643155722E-17   5.00000000000000E-02   5.00000000000000E-02   0.00000000000000E+00   0.00000000000000E+00
      8.59195937754209E-04  -6.04060957068816E-28   8.59195937754209E-04  -7.91579817855279E-17
      6.33333333333334E-01
      4.94000000000000E-01   4.94000000000000E-01   0.00000000000000E+00   0.00000000000000E+00   0.00000000000000E+00
      0.00000000000000E+00   0.00000000000000E+00   4.68348132884139E-16   0.00000000000000E+00   0.00000000000000E+00
      0.00000000000000E+00   0.00000000000000E+00  -8.83587881620550E-04  -2.48451720755493E-27  -8.83587881620550E-04
     -9.36164569767873E-17   5.00000000000000E-02   5.00000000000000E-02   0.00000000000000E+00   0.00000000000000E+00
      8.83587881186454E-04  -2.68170397479734E-27   8.83587881186454E-04  -8.39433182817142E-17
      6.50000000000000E-01
      5.07000000000000E-01   5.07000000000000E-01   0.00000000000000E+00   0.00000000000000E+00   0.00000000000000E+00
      0.00000000000000E+00   0.00000000000000E+00   4.93397410119087E-16   0.00000000000000E+00   0.00000000000000E+00
      0.00000000000000E+00   0.00000000000000E+00  -9.06822187324778E-04  -3.45541812789384E-27  -9.06822187324778E-04
     -9.79621756006121E-17   5.00000000000000E-02   5.00000000000000E-02   0.00000000000000E+00   0.00000000000000E+00
      9.06822186950472E-04  -4.08177521085860E-27   9.06822186950472E-04  -8.87302501319874E-17
      6.66666666666667E-01
      5.20000000000000E-01   5.20000000000000E-01   0.00000000000000E+00   0.00000000000000E+00   0.00000000000000E+00
      0.00000000000000E+00   0.00000000000000E+00   5.18623349526092E-16   0.00000000000000E+00   0.00000000000000E+00
      0.00000000000000E+00   0.00000000000000E+00  -9.28948655324430E-04  -4.26874882936722E-27  -9.28948655324430E-04
     -1.02308007584637E-16   5.00000000000000E-02   5.00000000000000E-02   0.00000000000000E+00   0.00000000000000E+00
      9.28948655002659E-04  -5.27335801718605E-27   9.28948655002659E-04  -9.35193133310610E-17
      6.83333333333334E-01
      5.33000000000000E-01   5.33000000000000E-01   0.00000000000000E+00   0.00000000000000E+00   0.00000000000000E+00
      0.00000000000000E+00   0.00000000000000E+00   5.44015316682519E-16   0.00000000000000E+00   0.00000000000000E+00
      0.00000000000000E+00   0.00000000000000E+00  -9.50017996356577E-04  -5.13237112725980E-27  -9.50017996356577E-04
     -1.06654451783788E-16   5.00000000000000E-02   5.00000000000000E-02   0.00000000000000E+00   0.00000000000000E+00
      9.50017996077843E-04  -6.43756988023560E-27   9.50017996077843E-04  -9.83109762799620E-17
      7.00000000000001E-01
      5.46000000000000E-01   5.46000000000000E-01   0.00000000000000E+00   0.00000000000000E+00   0.00000000000000E+00
      0.00000000000000E+00   0.00000000000000E+00   5.69563507096957E-16   0.00000000000000E+00   0.00000000000000E+00
      0.00000000000000E+00   0.00000000000000E+00  -9.70081763298441E-04  -5.48671318663814E-27  -9.70081763298441E-04
     -1.11001937103288E-16   5.00000000000000E-02   5.00000000000000E-02   0.00000000000000E+00   0.00000000000000E+00
      9.70081763057544E-04  -6.96877529708226E-27   9.70081763057544E-04  -1.03105643986142E-16
      7.16666666666667E-01
      5.59000000000000E-01   5.59000000000000E-01   0.00000000000000E+00   0.00000000000000E+00   0.00000000000000E+00
      0.00000000000000E+00   0.00000000000000E+00   5.95258860955582E-16   0.00000000000000E+00   0.00000000000000E+00
      0.00000000000000E+00   0.00000000000000E+00  -9.89191448693526E-04  -5.77614737737381E-27  -9.89191448693526E-04
     -1.15350828855797E-16   5.00000000000000E-02   5.00000000000000E-02   0.00000000000000E+00   0.00000000000000E+00
      9.89191448486357E-04  -7.42074136671623E-27   9.89191448486357E-04  -1.07903661870163E-16
      7.33333333333334E-01
      5.72000000000001E-01   5.72000000000001E-01   0.00000000000000E+00   0.00000000000000E+00   0.00000000000000E+00
      0.00000000000000E+00   0.00000000000000E+00   6.21092861737334E-16   0.00000000000000E+00   0.00000000000000E+00
      0.00000000000000E+00   0.00000000000000E+00  -1.00740926901448E-03   5.07814531770830E-26  -1.00740926901448E-03
     -1.19701438606567E-16   5.00000000000000E-02   5.00000000000000E-02   0.00000000000000E+00   0.00000000000000E+00
      1.00739124286205E-03   4.61726670081277E-26   1.00739124286205E-03  -1.12705324622397E-16
      7.50000000000001E-01
      5.85000000000001E-01   5.85000000000001E-01   0.00000000000000E+00   0.00000000000000E+00   0.00000000000000E+00
      0.00000000000000E+00   0.00000000000000E+00   6.47058017573525E-16   0.00000000000000E+00   0.00000000000000E+00
      0.00000000000000E+00   0.00000000000000E+00  -1.02476011030912E-03   3.18014836965546E-26  -1.02476011030912E-03
     -1.24054015519428E-16   5.00000000000000E-02   5.00000000000000E-02   0.00000000000000E+00   0.00000000000000E+00
      1.02474453774738E-03   2.61770936103203E-26   1.02474453774738E-03  -1.17510866963333E-16
      7.66666666666667E-01
      5.98000000000001E-01   5.98000000000001E-01   0.00000000000000E+00   0.00000000000000E+00   0.00000000000000E+00
      0.00000000000000E+00   0.00000000000000E+00   6.73146985397119E-16   0.00000000000000E+00   0.00000000000000E+00
      0.00000000000000E+00   0.00000000000000E+00  -1.04130444589916E-03   3.66432763266784E-26  -1.04130444589916E-03
     -1.28408778845909E-16   5.00000000000000E-02   5.00000000000000E-02   0.00000000000000E+00   0.00000000000000E+00
      1.04129119238010E-03   3.67176427925752E-26   1.04129119238010E-03  -1.22320491133671E-16
      7.83333333333334E-01
      6.11000000000001E-01   6.11000000000001E-01   0.00000000000000E+00   0.00000000000000E+00   0.00000000000000E+00
      0.00000000000000E+00   0.00000000000000E+00   6.99353087665122E-16   0.00000000000000E+00   0.00000000000000E+00
      0.00000000000000E+00   0.00000000000000E+00  -1.05708807694020E-03   2.69816104832252E-26  -1.05708807694020E-03
     -1.32765904861780E-16   5.00000000000000E-02   5.00000000000000E-02   0.00000000000000E+00   0.00000000000000E+00
      1.05707686584783E-03   2.68120588852663E-26   1.05707686584783E-03  -1.27134355988946E-16
      8.00000000000001E-01
      6.24000000000001E-01   6.24000000000001E-01   0.00000000000000E+00   0.00000000000000E+00   0.00000000000000E+00
      0.00000000000000E+00   0.00000000000000E+00   7.25670123948493E-16   0.00000000000000E+00   0.00000000000000E+00