DF-ISE text

Info {
  version   = 1.0
  type      = xyplot
  datasets  = [
    "time"
    "gate OuterVoltage" "gate InnerVoltage" "gate QuasiFermiPotential" "gate DisplacementCurrent" "gate eCurrent"
    "gate hCurrent" "gate TotalCurrent" "gate Charge" "source OuterVoltage" "source InnerVoltage"
    "source QuasiFermiPotential" "source DisplacementCurrent" "source eCurrent" "source hCurrent" "source TotalCurrent"
    "source Charge" "drain OuterVoltage" "drain InnerVoltage" "drain QuasiFermiPotential" "drain DisplacementCurrent"
    "drain eCurrent" "drain hCurrent" "drain TotalCurrent" "drain Charge" ]
  functions = [
    Time
    OuterVoltage InnerVoltage QuasiFermiPotential DisplacementCurrent eCurrent
    hCurrent TotalCurrent Charge OuterVoltage InnerVoltage
    QuasiFermiPotential DisplacementCurrent eCurrent hCurrent TotalCurrent
    Charge OuterVoltage InnerVoltage QuasiFermiPotential DisplacementCurrent
    eCurrent hCurrent TotalCurrent Charge ]
}

Data {
      0.00000000000000E+00
      0.00000000000000E+00   0.00000000000000E+00   0.00000000000000E+00   0.00000000000000E+00   0.00000000000000E+00
      0.00000000000000E+00   0.00000000000000E+00   4.79577370029081E-16   0.00000000000000E+00   0.00000000000000E+00
      0.00000000000000E+00   0.00000000000000E+00   5.82690083944771E-08  -2.84831511347280E-17   5.82690083659939E-08
     -1.02098334939137E-16  -7.80000000000000E-01  -7.80000000000000E-01   0.00000000000000E+00   0.00000000000000E+00
     -5.82690083775718E-08   1.15873076723674E-17  -5.82690083659844E-08  -3.78715804106827E-16
      1.66666666666667E-02
     -1.30000000000000E-02  -1.30000000000000E-02   0.00000000000000E+00   0.00000000000000E+00   0.00000000000000E+00
      0.00000000000000E+00   0.00000000000000E+00   4.70273914481577E-16   0.00000000000000E+00   0.00000000000000E+00
      0.00000000000000E+00   0.00000000000000E+00   9.10033527500841E-08   2.16632269389968E-17   9.10033527717474E-08
     -9.72157925081310E-17  -7.80000000000000E-01  -7.80000000000000E-01   0.00000000000000E+00   0.00000000000000E+00
     -9.10033529795851E-08   2.08364021909305E-16  -9.10033527712211E-08  -3.74320277919797E-16
      3.33333333333333E-02
     -2.60000000000000E-02  -2.60000000000000E-02   0.00000000000000E+00   0.00000000000000E+00   0.00000000000000E+00
      0.00000000000000E+00   0.00000000000000E+00   4.60940495213703E-16   0.00000000000000E+00   0.00000000000000E+00
      0.00000000000000E+00   0.00000000000000E+00   1.41905201354544E-07  -2.29236751919919E-17   1.41905201331620E-07
     -9.23173665487439E-17  -7.80000000000000E-01  -7.80000000000000E-01   0.00000000000000E+00   0.00000000000000E+00
     -1.41905201077334E-07  -2.55775599192363E-16  -1.41905201333109E-07  -3.69920144167726E-16
      5.00000000000000E-02
     -3.90000000000000E-02  -3.90000000000000E-02   0.00000000000000E+00   0.00000000000000E+00   0.00000000000000E+00
      0.00000000000000E+00   0.00000000000000E+00   4.51573473408086E-16   0.00000000000000E+00   0.00000000000000E+00
      0.00000000000000E+00   0.00000000000000E+00   2.20873645326449E-07  -2.00577388280961E-17   2.20873645306391E-07
     -8.74031026808668E-17  -7.80000000000000E-01  -7.80000000000000E-01   0.00000000000000E+00   0.00000000000000E+00
     -2.20873645131521E-07  -1.75312218407494E-16  -2.20873645306833E-07  -3.65515428318993E-16
      6.66666666666667E-02
     -5.20000000000000E-02  -5.20000000000000E-02   0.00000000000000E+00   0.00000000000000E+00   0.00000000000000E+00
      0.00000000000000E+00   0.00000000000000E+00   4.42167998455058E-16   0.00000000000000E+00   0.00000000000000E+00
      0.00000000000000E+00   0.00000000000000E+00   3.43038693696410E-07  -6.84147114021405E-17   3.43038693627995E-07
     -8.24733036556877E-17  -7.80000000000000E-01  -7.80000000000000E-01   0.00000000000000E+00   0.00000000000000E+00
     -3.43038693564602E-07  -6.33874416204068E-17  -3.43038693627989E-07  -3.61106185332334E-16
      8.33333333333333E-02
     -6.50000000000000E-02  -6.50000000000000E-02   0.00000000000000E+00   0.00000000000000E+00   0.00000000000000E+00
      0.00000000000000E+00   0.00000000000000E+00   4.32717522305304E-16   0.00000000000000E+00   0.00000000000000E+00
      0.00000000000000E+00   0.00000000000000E+00   5.31371637430029E-07  -5.17930996381084E-17   5.31371637378236E-07
     -7.75286261710645E-17  -7.80000000000000E-01  -7.80000000000000E-01   0.00000000000000E+00   0.00000000000000E+00
     -5.31371637383797E-07   6.10854994194842E-18  -5.31371637377689E-07  -3.56692513904295E-16
      1.00000000000000E-01
     -7.80000000000000E-02  -7.80000000000000E-02   0.00000000000000E+00   0.00000000000000E+00   0.00000000000000E+00
      0.00000000000000E+00   0.00000000000000E+00   4.23213135048040E-16   0.00000000000000E+00   0.00000000000000E+00
      0.00000000000000E+00   0.00000000000000E+00   8.20446071595672E-07  -9.49588775296741E-17   8.20446071500714E-07
     -7.25702023554228E-17  -7.80000000000000E-01  -7.80000000000000E-01   0.00000000000000E+00   0.00000000000000E+00
     -8.20446071554491E-07   5.39041942611115E-17  -8.20446071500587E-07  -3.52274576326328E-16
      1.16666666666667E-01
     -9.10000000000000E-02  -9.10000000000000E-02   0.00000000000000E+00   0.00000000000000E+00   0.00000000000000E+00
      0.00000000000000E+00   0.00000000000000E+00   4.13642682811614E-16   0.00000000000000E+00   0.00000000000000E+00
      0.00000000000000E+00   0.00000000000000E+00   1.26170343881022E-06  -2.04241270395170E-18   1.26170343880818E-06
     -6.75997857619591E-17  -7.80000000000000E-01  -7.80000000000000E-01   0.00000000000000E+00   0.00000000000000E+00
     -1.26170343871861E-06  -8.96289934131680E-17  -1.26170343880824E-06  -3.47852625216325E-16
      1.33333333333333E-01
     -1.04000000000000E-01  -1.04000000000000E-01   0.00000000000000E+00   0.00000000000000E+00   0.00000000000000E+00
      0.00000000000000E+00   0.00000000000000E+00   4.03989650279070E-16   0.00000000000000E+00   0.00000000000000E+00
      0.00000000000000E+00   0.00000000000000E+00   1.93052911427632E-06   6.05687129374184E-17   1.93052911433688E-06
     -6.26199154429003E-17  -7.80000000000000E-01  -7.80000000000000E-01   0.00000000000000E+00   0.00000000000000E+00
     -1.93052911421961E-06  -1.16561361165904E-16  -1.93052911433617E-06  -3.43427038278915E-16
      1.50000000000000E-01
     -1.17000000000000E-01  -1.17000000000000E-01   0.00000000000000E+00   0.00000000000000E+00   0.00000000000000E+00
      0.00000000000000E+00   0.00000000000000E+00   3.94231843983565E-16   0.00000000000000E+00   0.00000000000000E+00
      0.00000000000000E+00   0.00000000000000E+00   2.93521183435116E-06  -1.57384335433997E-14   2.93521181861272E-06
     -5.76340806103071E-17  -7.80000000000000E-01  -7.80000000000000E-01   0.00000000000000E+00   0.00000000000000E+00
     -2.93521183533790E-06  -7.45005756270555E-16  -2.93521183608291E-06  -3.38998361066191E-16
      1.66666666666667E-01
     -1.30000000000000E-01  -1.30000000000000E-01   0.00000000000000E+00   0.00000000000000E+00   0.00000000000000E+00
      0.00000000000000E+00   0.00000000000000E+00   3.84340014811280E-16   0.00000000000000E+00   0.00000000000000E+00
      0.00000000000000E+00   0.00000000000000E+00   4.42732108828204E-06  -5.36297382459871E-14   4.42732103465230E-06
     -5.26468522407917E-17  -7.80000000000000E-01  -7.80000000000000E-01   0.00000000000000E+00   0.00000000000000E+00
     -4.42732109376979E-06  -5.57055180292525E-15  -4.42732109934034E-06  -3.34567355952993E-16
      1.83333333333333E-01
     -1.43000000000000E-01  -1.43000000000000E-01   0.00000000000000E+00   0.00000000000000E+00   0.00000000000000E+00
      0.00000000000000E+00   0.00000000000000E+00   3.74276704317531E-16   0.00000000000000E+00   0.00000000000000E+00
      0.00000000000000E+00   0.00000000000000E+00   6.61215639624902E-06  -1.93902308450475E-13   6.61215620234671E-06
     -4.76639304235953E-17  -7.80000000000000E-01  -7.80000000000000E-01   0.00000000000000E+00   0.00000000000000E+00
     -6.61215635983158E-06  -4.16460902858497E-14  -6.61215640147767E-06  -3.30135053405530E-16
      2.00000000000000E-01
     -1.56000000000000E-01  -1.56000000000000E-01   0.00000000000000E+00   0.00000000000000E+00   0.00000000000000E+00
      0.00000000000000E+00   0.00000000000000E+00   3.63995718356351E-16   0.00000000000000E+00   0.00000000000000E+00
      0.00000000000000E+00   0.00000000000000E+00   9.75699733578843E-06  -5.26837060960765E-13   9.75699680895137E-06
     -4.26920484944983E-17  -7.80000000000000E-01  -7.80000000000000E-01   0.00000000000000E+00   0.00000000000000E+00
     -9.75699740746664E-06   6.51742092293451E-14  -9.75699734229243E-06  -3.25702791183636E-16
      2.16666666666667E-01
     -1.69000000000000E-01  -1.69000000000000E-01   0.00000000000000E+00   0.00000000000000E+00   0.00000000000000E+00
      0.00000000000000E+00   0.00000000000000E+00   3.53442539368684E-16   0.00000000000000E+00   0.00000000000000E+00
      0.00000000000000E+00   0.00000000000000E+00   1.41949546436924E-05  -1.24426349776750E-12   1.41949533994289E-05
     -3.77386992961667E-17  -7.80000000000000E-01  -7.80000000000000E-01   0.00000000000000E+00   0.00000000000000E+00
     -1.41949546561372E-05   2.20250788144872E-14  -1.41949546341121E-05  -3.21272194671285E-16
      2.33333333333333E-01
     -1.82000000000000E-01  -1.82000000000000E-01   0.00000000000000E+00   0.00000000000000E+00   0.00000000000000E+00
      0.00000000000000E+00   0.00000000000000E+00   3.42555445234791E-16   0.00000000000000E+00   0.00000000000000E+00
      0.00000000000000E+00   0.00000000000000E+00   2.03255753725972E-05  -2.47508576363165E-12   2.03255728975114E-05
     -3.28117309776648E-17  -7.80000000000000E-01  -7.80000000000000E-01   0.00000000000000E+00   0.00000000000000E+00
     -2.03255753607882E-05  -7.28870349588896E-15  -2.03255753680769E-05  -3.16845104103032E-16
      2.50000000000000E-01
     -1.95000000000000E-01  -1.95000000000000E-01   0.00000000000000E+00   0.00000000000000E+00   0.00000000000000E+00
      0.00000000000000E+00   0.00000000000000E+00   3.31265402486099E-16   0.00000000000000E+00   0.00000000000000E+00
      0.00000000000000E+00   0.00000000000000E+00   2.86252011633658E-05  -1.89661663708672E-17   2.86252011633469E-05
     -2.79190402875261E-17  -7.80000000000000E-01  -7.80000000000000E-01   0.00000000000000E+00   0.00000000000000E+00
     -2.86252011633130E-05  -3.39451544905173E-17  -2.86252011633469E-05  -3.12423576334778E-16
      2.66666666666667E-01
     -2.08000000000000E-01  -2.08000000000000E-01   0.00000000000000E+00   0.00000000000000E+00   0.00000000000000E+00
      0.00000000000000E+00   0.00000000000000E+00   3.19486447000353E-16   0.00000000000000E+00   0.00000000000000E+00
      0.00000000000000E+00   0.00000000000000E+00   3.97253153862838E-05  -7.29885075001062E-12   3.97253080874330E-05
     -2.30691042540733E-17  -7.80000000000000E-01  -7.80000000000000E-01   0.00000000000000E+00   0.00000000000000E+00
     -3.97253153942005E-05   5.85765979202740E-15  -3.97253153883428E-05  -3.08010179295447E-16
      2.83333333333333E-01
     -2.21000000000000E-01  -2.21000000000000E-01   0.00000000000000E+00   0.00000000000000E+00   0.00000000000000E+00
      0.00000000000000E+00   0.00000000000000E+00   3.07158213723886E-16   0.00000000000000E+00   0.00000000000000E+00
      0.00000000000000E+00   0.00000000000000E+00   5.41107446355906E-05  -1.11074961317350E-11   5.41107335280945E-05
     -1.82703669341743E-17  -7.80000000000000E-01  -7.80000000000000E-01   0.00000000000000E+00   0.00000000000000E+00
     -5.41107446035573E-05  -4.03793981939298E-14  -5.41107446439367E-05  -3.03606453323962E-16
      3.00000000000000E-01
     -2.34000000000000E-01  -2.34000000000000E-01   0.00000000000000E+00   0.00000000000000E+00   0.00000000000000E+00
      0.00000000000000E+00   0.00000000000000E+00   2.94910342556612E-16   0.00000000000000E+00   0.00000000000000E+00
      0.00000000000000E+00   0.00000000000000E+00   6.75915698297204E-05  -2.78176191375652E-15   6.75915698269386E-05
     -1.34603921613669E-17  -7.80000000000000E-01  -7.80000000000000E-01   0.00000000000000E+00   0.00000000000000E+00
     -6.75915698298315E-05  -2.28267337398906E-16  -6.75915698300597E-05  -2.99193038159733E-16
      3.16666666666667E-01
     -2.47000000000000E-01  -2.47000000000000E-01   0.00000000000000E+00   0.00000000000000E+00   0.00000000000000E+00
      0.00000000000000E+00   0.00000000000000E+00   2.82297461389115E-16   0.00000000000000E+00   0.00000000000000E+00
      0.00000000000000E+00   0.00000000000000E+00   8.28067507710750E-05  -2.43074332910841E-11   8.28067264636417E-05
     -8.68946914022685E-18  -7.80000000000000E-01  -7.80000000000000E-01   0.00000000000000E+00   0.00000000000000E+00
     -8.28067507906513E-05  -7.48037808736727E-14  -8.28067508654551E-05  -2.94782647516004E-16
      3.33333333333333E-01
     -2.60000000000000E-01  -2.60000000000000E-01   0.00000000000000E+00   0.00000000000000E+00   0.00000000000000E+00
      0.00000000000000E+00   0.00000000000000E+00   2.69302182659726E-16   0.00000000000000E+00   0.00000000000000E+00
      0.00000000000000E+00   0.00000000000000E+00   9.98985878548899E-05  -9.97564906634528E-12   9.98985778792408E-05
     -3.95673246771719E-18  -7.80000000000000E-01  -7.80000000000000E-01   0.00000000000000E+00   0.00000000000000E+00
     -9.98985878238147E-05  -2.25691237567989E-14  -9.98985878463838E-05  -2.90375781010680E-16
      3.50000000000000E-01
     -2.73000000000000E-01  -2.73000000000000E-01   0.00000000000000E+00   0.00000000000000E+00   0.00000000000000E+00
      0.00000000000000E+00   0.00000000000000E+00   2.55937389110038E-16   0.00000000000000E+00   0.00000000000000E+00
      0.00000000000000E+00   0.00000000000000E+00   1.18817667500887E-04  -4.63907930721970E-12   1.18817662861808E-04
      7.41155160524443E-19  -7.80000000000000E-01  -7.80000000000000E-01   0.00000000000000E+00   0.00000000000000E+00
     -1.18817667328936E-04  -7.51193330177570E-14  -1.18817667404055E-04  -2.85972027635154E-16
      3.66666666666667E-01
     -2.86000000000000E-01  -2.86000000000000E-01   0.00000000000000E+00   0.00000000000000E+00   0.00000000000000E+00
      0.00000000000000E+00   0.00000000000000E+00   2.42220934113006E-16   0.00000000000000E+00   0.00000000000000E+00
      0.00000000000000E+00   0.00000000000000E+00   1.39466776148788E-04  -2.53042617736598E-12   1.39466773618362E-04
      5.40709391106352E-18  -7.80000000000000E-01  -7.80000000000000E-01   0.00000000000000E+00   0.00000000000000E+00
     -1.39466776287878E-04   1.99312049667736E-13  -1.39466776088566E-04  -2.81570785513762E-16
      3.83333333333333E-01
     -2.99000000000000E-01  -2.99000000000000E-01   0.00000000000000E+00   0.00000000000000E+00   0.00000000000000E+00
      0.00000000000000E+00   0.00000000000000E+00   2.28171848932878E-16   0.00000000000000E+00   0.00000000000000E+00
      0.00000000000000E+00   0.00000000000000E+00   1.61733319946718E-04  -1.56315369477839E-12   1.61733318383565E-04
      1.00438271958997E-17  -7.80000000000000E-01  -7.80000000000000E-01   0.00000000000000E+00   0.00000000000000E+00
     -1.61733320073742E-04   1.99328822139510E-13  -1.61733319874413E-04  -2.77171401742144E-16
      4.00000000000000E-01
     -3.12000000000000E-01  -3.12000000000000E-01   0.00000000000000E+00   0.00000000000000E+00   0.00000000000000E+00
      0.00000000000000E+00   0.00000000000000E+00   2.13809109845205E-16   0.00000000000000E+00   0.00000000000000E+00
      0.00000000000000E+00   0.00000000000000E+00   1.85504159363517E-04  -9.55385543791474E-13   1.85504158408131E-04
      1.46539270658169E-17  -7.80000000000000E-01  -7.80000000000000E-01   0.00000000000000E+00   0.00000000000000E+00
     -1.85504159393405E-04   8.45076291971166E-15  -1.85504159384954E-04  -2.72773212870200E-16
      4.16666666666667E-01
     -3.25000000000000E-01  -3.25000000000000E-01   0.00000000000000E+00   0.00000000000000E+00   0.00000000000000E+00
      0.00000000000000E+00   0.00000000000000E+00   1.99151201557514E-16   0.00000000000000E+00   0.00000000000000E+00
      0.00000000000000E+00   0.00000000000000E+00   2.10668012577679E-04  -6.56531308261304E-13   2.10668011921148E-04
      1.92396452966049E-17  -7.80000000000000E-01  -7.80000000000000E-01   0.00000000000000E+00   0.00000000000000E+00
     -2.10668012584663E-04  -9.71057896789546E-15  -2.10668012594374E-04  -2.68375573867788E-16
      4.33333333333333E-01
     -3.38000000000000E-01  -3.38000000000000E-01   0.00000000000000E+00   0.00000000000000E+00   0.00000000000000E+00
      0.00000000000000E+00   0.00000000000000E+00   1.84214436620503E-16   0.00000000000000E+00   0.00000000000000E+00
      0.00000000000000E+00   0.00000000000000E+00   2.37119826747694E-04  -4.81133500344440E-13   2.37119826266561E-04
      2.38031839939038E-17  -7.80000000000000E-01  -7.80000000000000E-01   0.00000000000000E+00   0.00000000000000E+00
     -2.37119826717432E-04  -2.17820890564235E-14  -2.37119826739214E-04  -2.63977935873739E-16
      4.50000000000000E-01
     -3.51000000000000E-01  -3.51000000000000E-01   0.00000000000000E+00   0.00000000000000E+00   0.00000000000000E+00
      0.00000000000000E+00   0.00000000000000E+00   1.69015918325521E-16   0.00000000000000E+00   0.00000000000000E+00
      0.00000000000000E+00   0.00000000000000E+00   2.64764248164866E-04  -3.39506697811012E-13   2.64764247825359E-04
      2.83465318796561E-17  -7.80000000000000E-01  -7.80000000000000E-01   0.00000000000000E+00   0.00000000000000E+00
     -2.64764248124194E-04  -3.93391092123737E-14  -2.64764248163533E-04  -2.59579671801345E-16
      4.66666666666667E-01
     -3.64000000000000E-01  -3.64000000000000E-01   0.00000000000000E+00   0.00000000000000E+00   0.00000000000000E+00
      0.00000000000000E+00   0.00000000000000E+00   1.53570257666909E-16   0.00000000000000E+00   0.00000000000000E+00
      0.00000000000000E+00   0.00000000000000E+00   2.93509538766886E-04  -2.46772872863804E-13   2.93509538520113E-04
      3.28715064594689E-17  -7.80000000000000E-01  -7.80000000000000E-01   0.00000000000000E+00   0.00000000000000E+00
     -2.93509538732747E-04  -3.77614603099054E-14  -2.93509538770509E-04  -2.55180312128777E-16
      4.83333333333333E-01
     -3.77000000000000E-01  -3.77000000000000E-01   0.00000000000000E+00   0.00000000000000E+00   0.00000000000000E+00
      0.00000000000000E+00   0.00000000000000E+00   1.37891712077164E-16   0.00000000000000E+00   0.00000000000000E+00
      0.00000000000000E+00   0.00000000000000E+00   3.23272847420161E-04  -1.90758137064149E-13   3.23272847229403E-04
      3.73798503645268E-17  -7.80000000000000E-01  -7.80000000000000E-01   0.00000000000000E+00   0.00000000000000E+00
     -3.23272847388592E-04  -3.11790083797370E-14  -3.23272847419771E-04  -2.50779364530832E-16
      5.00000000000000E-01
     -3.90000000000000E-01  -3.90000000000000E-01   0.00000000000000E+00   0.00000000000000E+00   0.00000000000000E+00
      0.00000000000000E+00   0.00000000000000E+00   1.21994056010466E-16   0.00000000000000E+00   0.00000000000000E+00
      0.00000000000000E+00   0.00000000000000E+00   3.53976832794875E-04  -1.52354325858373E-13   3.53976832642520E-04
      4.18731161908499E-17  -7.80000000000000E-01  -7.80000000000000E-01   0.00000000000000E+00   0.00000000000000E+00
     -3.53976832791222E-04  -2.09923994815200E-15  -3.53976832793321E-04  -2.46376359347503E-16
      5.16666666666667E-01
     -4.03000000000000E-01  -4.03000000000000E-01   0.00000000000000E+00   0.00000000000000E+00   0.00000000000000E+00
      0.00000000000000E+00   0.00000000000000E+00   1.05889946409494E-16   0.00000000000000E+00   0.00000000000000E+00
      0.00000000000000E+00   0.00000000000000E+00   3.85549969745693E-04  -1.22462098575540E-13   3.85549969623231E-04
      4.63527836502288E-17  -7.80000000000000E-01  -7.80000000000000E-01   0.00000000000000E+00   0.00000000000000E+00
     -3.85549969735934E-04  -7.23846032171641E-15  -3.85549969743172E-04  -2.41970886322173E-16
      5.33333333333333E-01
     -4.16000000000000E-01  -4.16000000000000E-01   0.00000000000000E+00   0.00000000000000E+00   0.00000000000000E+00
      0.00000000000000E+00   0.00000000000000E+00   8.95911039104774E-17   0.00000000000000E+00   0.00000000000000E+00
      0.00000000000000E+00   0.00000000000000E+00   4.17925917151875E-04  -9.07207425568992E-14   4.17925917061154E-04
      5.08202440695371E-17  -7.80000000000000E-01  -7.80000000000000E-01   0.00000000000000E+00   0.00000000000000E+00
     -4.17925917144012E-04  -9.62272788235718E-15  -4.17925917153635E-04  -2.37562592547457E-16
      5.50000000000000E-01
     -4.29000000000000E-01  -4.29000000000000E-01   0.00000000000000E+00   0.00000000000000E+00   0.00000000000000E+00
      0.00000000000000E+00   0.00000000000000E+00   7.31086302142059E-17   0.00000000000000E+00   0.00000000000000E+00
      0.00000000000000E+00   0.00000000000000E+00   4.51043249335082E-04  -7.48074741841676E-14   4.51043249260275E-04
      5.52767967523468E-17  -7.80000000000000E-01  -7.80000000000000E-01   0.00000000000000E+00   0.00000000000000E+00
     -4.51043249346920E-04   3.90265228431800E-15  -4.51043249343018E-04  -2.33151156253838E-16
      5.66666666666667E-01
     -4.42000000000000E-01  -4.42000000000000E-01   0.00000000000000E+00   0.00000000000000E+00   0.00000000000000E+00
      0.00000000000000E+00   0.00000000000000E+00   5.64532417697923E-17   0.00000000000000E+00   0.00000000000000E+00
      0.00000000000000E+00   0.00000000000000E+00   4.84843971718642E-04  -6.70210036962541E-14   4.84843971651621E-04
      5.97235905286755E-17  -7.80000000000000E-01  -7.80000000000000E-01   0.00000000000000E+00   0.00000000000000E+00
     -4.84843971721694E-04   1.36879774063612E-15  -4.84843971720325E-04  -2.28736292876778E-16
      5.83333333333333E-01
     -4.55000000000000E-01  -4.55000000000000E-01   0.00000000000000E+00   0.00000000000000E+00   0.00000000000000E+00
      0.00000000000000E+00   0.00000000000000E+00   3.96348028816158E-17   0.00000000000000E+00   0.00000000000000E+00
      0.00000000000000E+00   0.00000000000000E+00   5.19275304737064E-04  -5.57315154130373E-14   5.19275304681332E-04
      6.41617682730714E-17  -7.80000000000000E-01  -7.80000000000000E-01   0.00000000000000E+00   0.00000000000000E+00
     -5.19275304740336E-04   2.78594153833664E-16  -5.19275304740058E-04  -2.24317754433049E-16
      6.00000000000000E-01
     -4.68000000000000E-01  -4.68000000000000E-01   0.00000000000000E+00   0.00000000000000E+00   0.00000000000000E+00
      0.00000000000000E+00   0.00000000000000E+00   2.26627958679310E-17   0.00000000000000E+00   0.00000000000000E+00
      0.00000000000000E+00   0.00000000000000E+00   5.54288007277029E-04  -4.36762455826422E-14   5.54288007233353E-04
      6.85923732440196E-17  -7.80000000000000E-01  -7.80000000000000E-01   0.00000000000000E+00   0.00000000000000E+00
     -5.54288007281200E-04  -1.54466537131498E-15  -5.54288007282745E-04  -2.19895303424300E-16
      6.16666666666667E-01
     -4.81000000000000E-01  -4.81000000000000E-01   0.00000000000000E+00   0.00000000000000E+00   0.00000000000000E+00
      0.00000000000000E+00   0.00000000000000E+00   5.54616268397374E-18   0.00000000000000E+00   0.00000000000000E+00
      0.00000000000000E+00   0.00000000000000E+00   5.89836024977778E-04  -3.50334145906005E-14   5.89836024942745E-04
      7.30163638182403E-17  -7.80000000000000E-01  -7.80000000000000E-01   0.00000000000000E+00   0.00000000000000E+00
     -5.89836024977845E-04  -6.48432022901831E-15  -5.89836024984329E-04  -2.15468735029966E-16
      6.33333333333334E-01
     -4.94000000000000E-01  -4.94000000000000E-01   0.00000000000000E+00   0.00000000000000E+00   0.00000000000000E+00
      0.00000000000000E+00   0.00000000000000E+00  -1.17068887777003E-17   0.00000000000000E+00   0.00000000000000E+00
      0.00000000000000E+00   0.00000000000000E+00   6.25876108864434E-04  -3.40398429507988E-14   6.25876108830394E-04
      7.74346248600468E-17  -7.80000000000000E-01  -7.80000000000000E-01   0.00000000000000E+00   0.00000000000000E+00
     -6.25876108866923E-04   1.22900207288554E-17  -6.25876108866911E-04  -2.11037908931344E-16
      6.50000000000000E-01
     -5.07000000000000E-01  -5.07000000000000E-01   0.00000000000000E+00   0.00000000000000E+00   0.00000000000000E+00
      0.00000000000000E+00   0.00000000000000E+00  -2.90886846056296E-17   0.00000000000000E+00   0.00000000000000E+00
      0.00000000000000E+00   0.00000000000000E+00   6.62367949776971E-04  -3.11339281589944E-14   6.62367949745837E-04
      8.18479737567056E-17  -7.80000000000000E-01  -7.80000000000000E-01   0.00000000000000E+00   0.00000000000000E+00
     -6.62367949777597E-04   8.48108759468860E-17  -6.62367949777512E-04  -2.06602739955124E-16
      6.66666666666667E-01
     -5.20000000000000E-01  -5.20000000000000E-01   0.00000000000000E+00   0.00000000000000E+00   0.00000000000000E+00
      0.00000000000000E+00   0.00000000000000E+00  -4.65921427378219E-17   0.00000000000000E+00   0.00000000000000E+00
      0.00000000000000E+00   0.00000000000000E+00   6.99273833810962E-04  -2.87680133420511E-14   6.99273833782194E-04
      8.62571622320156E-17  -7.80000000000000E-01  -7.80000000000000E-01   0.00000000000000E+00   0.00000000000000E+00
     -6.99273833809706E-04  -1.30205204490673E-16  -6.99273833809836E-04  -2.02163232474937E-16
      6.83333333333334E-01
     -5.33000000000000E-01  -5.33000000000000E-01   0.00000000000000E+00   0.00000000000000E+00   0.00000000000000E+00
      0.00000000000000E+00   0.00000000000000E+00  -6.42100205657233E-17   0.00000000000000E+00   0.00000000000000E+00
      0.00000000000000E+00   0.00000000000000E+00   7.36558836121717E-04  -2.53815401587236E-14   7.36558836096335E-04
      9.06628594449743E-17  -7.80000000000000E-01  -7.80000000000000E-01   0.00000000000000E+00   0.00000000000000E+00
     -7.36558836121376E-04   3.45109798779071E-16  -7.36558836121031E-04  -1.97719254652176E-16
      7.00000000000001E-01
     -5.46000000000000E-01  -5.46000000000000E-01   0.00000000000000E+00   0.00000000000000E+00   0.00000000000000E+00
      0.00000000000000E+00   0.00000000000000E+00  -8.19354828923916E-17   0.00000000000000E+00   0.00000000000000E+00
      0.00000000000000E+00   0.00000000000000E+00   7.74190658581429E-04  -2.29684932450067E-14   7.74190658558460E-04
      9.50656865583273E-17  -7.80000000000000E-01  -7.80000000000000E-01   0.00000000000000E+00   0.00000000000000E+00
     -7.74190658580479E-04   2.34876541580819E-16  -7.74190658580244E-04  -1.93270662569656E-16
      7.16666666666667E-01
     -5.59000000000000E-01  -5.59000000000000E-01   0.00000000000000E+00   0.00000000000000E+00   0.00000000000000E+00
      0.00000000000000E+00   0.00000000000000E+00  -9.97632244492724E-17   0.00000000000000E+00   0.00000000000000E+00
      0.00000000000000E+00   0.00000000000000E+00   8.12138352757245E-04  -1.94724893441828E-14   8.12138352737773E-04
      9.94662325880863E-17  -7.80000000000000E-01  -7.80000000000000E-01   0.00000000000000E+00   0.00000000000000E+00
     -8.12138352757088E-04  -5.77462860221755E-17  -8.12138352757145E-04  -1.88817668272164E-16
      7.33333333333334E-01
     -5.72000000000001E-01  -5.72000000000001E-01   0.00000000000000E+00   0.00000000000000E+00   0.00000000000000E+00
      0.00000000000000E+00   0.00000000000000E+00  -1.17687544779911E-16   0.00000000000000E+00   0.00000000000000E+00
      0.00000000000000E+00   0.00000000000000E+00   8.50372642272196E-04  -1.65972509396117E-14   8.50372642255598E-04
      1.03864975050812E-16  -7.80000000000000E-01  -7.80000000000000E-01   0.00000000000000E+00   0.00000000000000E+00
     -8.50372642272161E-04  -1.74323635994070E-16  -8.50372642272336E-04  -1.84360365161761E-16
      7.50000000000001E-01
     -5.85000000000001E-01  -5.85000000000001E-01   0.00000000000000E+00   0.00000000000000E+00   0.00000000000000E+00
      0.00000000000000E+00   0.00000000000000E+00  -1.35702413797989E-16   0.00000000000000E+00   0.00000000000000E+00
      0.00000000000000E+00   0.00000000000000E+00   8.88869218033602E-04  -1.45051054037134E-14   8.88869218019097E-04
      1.08262440628815E-16  -7.80000000000000E-01  -7.80000000000000E-01   0.00000000000000E+00   0.00000000000000E+00
     -8.88869218033688E-04  -1.24963585858726E-16  -8.88869218033813E-04  -1.79898450339391E-16
      7.66666666666667E-01
     -5.98000000000001E-01  -5.98000000000001E-01   0.00000000000000E+00   0.00000000000000E+00   0.00000000000000E+00
      0.00000000000000E+00   0.00000000000000E+00  -1.53804413000230E-16   0.00000000000000E+00   0.00000000000000E+00
      0.00000000000000E+00   0.00000000000000E+00   9.27601370424857E-04  -1.32679418368607E-14   9.27601370411589E-04
      1.12659048442501E-16  -7.80000000000000E-01  -7.80000000000000E-01   0.00000000000000E+00   0.00000000000000E+00
     -9.27601370424675E-04   1.12770894307709E-16  -9.27601370424562E-04  -1.75432576370608E-16
      7.83333333333334E-01
     -6.11000000000001E-01  -6.11000000000001E-01   0.00000000000000E+00   0.00000000000000E+00   0.00000000000000E+00
      0.00000000000000E+00   0.00000000000000E+00  -1.71987741835216E-16   0.00000000000000E+00   0.00000000000000E+00
      0.00000000000000E+00   0.00000000000000E+00   9.66547828511931E-04  -1.23610674894345E-14   9.66547828499570E-04
      1.17055194324553E-16  -7.80000000000000E-01  -7.80000000000000E-01   0.00000000000000E+00   0.00000000000000E+00
     -9.66547828510951E-04  -1.31482871152477E-18  -9.66547828510952E-04  -1.70962414906516E-16
      8.00000000000001E-01
     -6.24000000000001E-01  -6.24000000000001E-01   0.00000000000000E+00   0.00000000000000E+00   0.00000000000000E+00
      0.00000000000000E+00   0.00000000000000E+00  -1.90248594508954E-16   0.00000000000000E+00   0.00000000000000E+00