DF-ISE text

Info {
  version   = 1.0
  type      = xyplot
  datasets  = [
    "time"
    "gate OuterVoltage" "gate InnerVoltage" "gate QuasiFermiPotential" "gate DisplacementCurrent" "gate eCurrent"
    "gate hCurrent" "gate TotalCurrent" "gate Charge" "source OuterVoltage" "source InnerVoltage"
    "source QuasiFermiPotential" "source DisplacementCurrent" "source eCurrent" "source hCurrent" "source TotalCurrent"
    "source Charge" "drain OuterVoltage" "drain InnerVoltage" "drain QuasiFermiPotential" "drain DisplacementCurrent"
    "drain eCurrent" "drain hCurrent" "drain TotalCurrent" "drain Charge" ]
  functions = [
    Time
    OuterVoltage InnerVoltage QuasiFermiPotential DisplacementCurrent eCurrent
    hCurrent TotalCurrent Charge OuterVoltage InnerVoltage
    QuasiFermiPotential DisplacementCurrent eCurrent hCurrent TotalCurrent
    Charge OuterVoltage InnerVoltage QuasiFermiPotential DisplacementCurrent
    eCurrent hCurrent TotalCurrent Charge ]
}

Data {
      0.00000000000000E+00
      0.00000000000000E+00   0.00000000000000E+00   0.00000000000000E+00   0.00000000000000E+00   0.00000000000000E+00
      0.00000000000000E+00   0.00000000000000E+00   5.08249792481639E-16   0.00000000000000E+00   0.00000000000000E+00
      0.00000000000000E+00   0.00000000000000E+00   2.04836924897524E-08   8.48161735840795E-16   2.04836933379141E-08
     -1.16972862238496E-16  -7.80000000000000E-01  -7.80000000000000E-01   0.00000000000000E+00   0.00000000000000E+00
     -2.04836936934290E-08   6.86104207478890E-13  -2.04830075892215E-08  -3.92875988403369E-16
      1.66666666666667E-02
     -1.66666666666667E-03  -1.66666666666667E-03   0.00000000000000E+00   0.00000000000000E+00   0.00000000000000E+00
      0.00000000000000E+00   0.00000000000000E+00   5.07057806440870E-16   0.00000000000000E+00   0.00000000000000E+00
      0.00000000000000E+00   0.00000000000000E+00   2.16965519136988E-08  -2.21292507757167E-15   2.16965497007737E-08
     -1.16352566404973E-16  -7.80000000000000E-01  -7.80000000000000E-01   0.00000000000000E+00   0.00000000000000E+00
     -2.16965495095072E-08   5.75161149268790E-13  -2.16959743483579E-08  -3.92311561712290E-16
      3.33333333333333E-02
     -3.33333333333333E-03  -3.33333333333333E-03   0.00000000000000E+00   0.00000000000000E+00   0.00000000000000E+00
      0.00000000000000E+00   0.00000000000000E+00   5.05865434128933E-16   0.00000000000000E+00   0.00000000000000E+00
      0.00000000000000E+00   0.00000000000000E+00   2.29807846369036E-08  -8.01753653400530E-15   2.29807766193670E-08
     -1.15732100873161E-16  -7.80000000000000E-01  -7.80000000000000E-01   0.00000000000000E+00   0.00000000000000E+00
     -2.29807790935043E-08   7.85408718273789E-13  -2.29799936847860E-08  -3.91747054402582E-16
      5.00000000000000E-02
     -5.00000000000000E-03  -5.00000000000000E-03   0.00000000000000E+00   0.00000000000000E+00   0.00000000000000E+00
      0.00000000000000E+00   0.00000000000000E+00   5.04672674038374E-16   0.00000000000000E+00   0.00000000000000E+00
      0.00000000000000E+00   0.00000000000000E+00   2.43407344703442E-08  -1.84011023255395E-13   2.43405504593209E-08
     -1.15111465930028E-16  -7.80000000000000E-01  -7.80000000000000E-01   0.00000000000000E+00   0.00000000000000E+00
     -2.43407328000005E-08   5.17438248648074E-13  -2.43402153617518E-08  -3.91182467911038E-16
      6.66666666666667E-02
     -6.66666666666667E-03  -6.66666666666667E-03   0.00000000000000E+00   0.00000000000000E+00   0.00000000000000E+00
      0.00000000000000E+00   0.00000000000000E+00   5.03479519517742E-16   0.00000000000000E+00   0.00000000000000E+00
      0.00000000000000E+00   0.00000000000000E+00   2.57807433792926E-08  -1.50042775350254E-13   2.57805933365173E-08
     -1.14490661891755E-16  -7.80000000000000E-01  -7.80000000000000E-01   0.00000000000000E+00   0.00000000000000E+00
     -2.57807397314326E-08  -1.16513612450019E-12  -2.57819048675571E-08  -3.90617798446394E-16
      8.33333333333333E-02
     -8.33333333333333E-03  -8.33333333333333E-03   0.00000000000000E+00   0.00000000000000E+00   0.00000000000000E+00
      0.00000000000000E+00   0.00000000000000E+00   5.02285969051441E-16   0.00000000000000E+00   0.00000000000000E+00
      0.00000000000000E+00   0.00000000000000E+00   2.73056367628108E-08  -9.86608756672066E-14   2.73055381019351E-08
     -1.13869689091053E-16  -7.80000000000000E-01  -7.80000000000000E-01   0.00000000000000E+00   0.00000000000000E+00
     -2.73056505233405E-08  -2.37176245337481E-12  -2.73080222857939E-08  -3.90053047662190E-16
      1.00000000000000E-01
     -1.00000000000000E-02  -1.00000000000000E-02   0.00000000000000E+00   0.00000000000000E+00   0.00000000000000E+00
      0.00000000000000E+00   0.00000000000000E+00   5.01092019811722E-16   0.00000000000000E+00   0.00000000000000E+00
      0.00000000000000E+00   0.00000000000000E+00   2.89204885915164E-08  -1.13584032165903E-13   2.89203750074843E-08
     -1.13248547877406E-16  -7.80000000000000E-01  -7.80000000000000E-01   0.00000000000000E+00   0.00000000000000E+00
     -2.89204900237801E-08  -2.48096770459218E-12  -2.89229709914847E-08  -3.89488215857289E-16
      1.16666666666667E-01
     -1.16666666666667E-02  -1.16666666666667E-02   0.00000000000000E+00   0.00000000000000E+00   0.00000000000000E+00
      0.00000000000000E+00   0.00000000000000E+00   4.99897668310100E-16   0.00000000000000E+00   0.00000000000000E+00
      0.00000000000000E+00   0.00000000000000E+00   3.06304463755562E-08  -9.99719164818839E-14   3.06303464036397E-08
     -1.12627238629148E-16  -7.80000000000000E-01  -7.80000000000000E-01   0.00000000000000E+00   0.00000000000000E+00
     -3.06304621156175E-08  -1.27916807605687E-12  -3.06317412836935E-08  -3.88923302783282E-16
      1.33333333333333E-01
     -1.33333333333333E-02  -1.33333333333333E-02   0.00000000000000E+00   0.00000000000000E+00   0.00000000000000E+00
      0.00000000000000E+00   0.00000000000000E+00   4.98702911219836E-16   0.00000000000000E+00   0.00000000000000E+00
      0.00000000000000E+00   0.00000000000000E+00   3.24410206126373E-08  -1.23435205083755E-13   3.24408971774323E-08
     -1.12005761741067E-16  -7.80000000000000E-01  -7.80000000000000E-01   0.00000000000000E+00   0.00000000000000E+00
     -3.24410145577079E-08   5.12574690643761E-13  -3.24405019830172E-08  -3.88358308336536E-16
      1.50000000000000E-01
     -1.50000000000000E-02  -1.50000000000000E-02   0.00000000000000E+00   0.00000000000000E+00   0.00000000000000E+00
      0.00000000000000E+00   0.00000000000000E+00   4.97507745472615E-16   0.00000000000000E+00   0.00000000000000E+00
      0.00000000000000E+00   0.00000000000000E+00   3.43579310324397E-08  -1.30697610440847E-13   3.43578003348293E-08
     -1.11384117635425E-16  -7.80000000000000E-01  -7.80000000000000E-01   0.00000000000000E+00   0.00000000000000E+00
     -3.43579199129924E-08   1.43903282329186E-12  -3.43564808801691E-08  -3.87793232801765E-16
      1.66666666666667E-01
     -1.66666666666667E-02  -1.66666666666667E-02   0.00000000000000E+00   0.00000000000000E+00   0.00000000000000E+00
      0.00000000000000E+00   0.00000000000000E+00   4.96312167354684E-16   0.00000000000000E+00   0.00000000000000E+00
      0.00000000000000E+00   0.00000000000000E+00   3.63873621784977E-08  -1.03048132606141E-13   3.63872591303651E-08
     -1.10762306764961E-16  -7.80000000000000E-01  -7.80000000000000E-01   0.00000000000000E+00   0.00000000000000E+00
     -3.63873777356592E-08   3.55496229200955E-13  -3.63870222394300E-08  -3.87228075965524E-16
      1.83333333333333E-01
     -1.83333333333333E-02  -1.83333333333333E-02   0.00000000000000E+00   0.00000000000000E+00   0.00000000000000E+00
      0.00000000000000E+00   0.00000000000000E+00   4.95116173002347E-16   0.00000000000000E+00   0.00000000000000E+00
      0.00000000000000E+00   0.00000000000000E+00   3.85360569561694E-08  -1.05809921339305E-13   3.85359511462481E-08
     -1.10140329602246E-16  -7.80000000000000E-01  -7.80000000000000E-01   0.00000000000000E+00   0.00000000000000E+00
     -3.85360708894862E-08  -2.83133499863270E-12  -3.85389022244849E-08  -3.86662837469162E-16
      2.00000000000000E-01
     -2.00000000000000E-02  -2.00000000000000E-02   0.00000000000000E+00   0.00000000000000E+00   0.00000000000000E+00
      0.00000000000000E+00   0.00000000000000E+00   4.93919758758528E-16   0.00000000000000E+00   0.00000000000000E+00
      0.00000000000000E+00   0.00000000000000E+00   4.08111322840234E-08  -1.31606525292221E-13   4.08110006774981E-08
     -1.09518186646998E-16  -7.80000000000000E-01  -7.80000000000000E-01   0.00000000000000E+00   0.00000000000000E+00
     -4.08111227849362E-08  -7.05273847445616E-12  -4.08181755234107E-08  -3.86097517323414E-16
      2.16666666666667E-01
     -2.16666666666667E-02  -2.16666666666667E-02   0.00000000000000E+00   0.00000000000000E+00   0.00000000000000E+00
      0.00000000000000E+00   0.00000000000000E+00   4.92722918494720E-16   0.00000000000000E+00   0.00000000000000E+00
      0.00000000000000E+00   0.00000000000000E+00   4.32202897477370E-08  -1.44369417036470E-14   4.32202753107953E-08
     -1.08895878431569E-16  -7.80000000000000E-01  -7.80000000000000E-01   0.00000000000000E+00   0.00000000000000E+00
     -4.32202744427123E-08  -7.61899387900056E-12  -4.32278934365913E-08  -3.85532113056605E-16
      2.33333333333333E-01
     -2.33333333333333E-02  -2.33333333333333E-02   0.00000000000000E+00   0.00000000000000E+00   0.00000000000000E+00
      0.00000000000000E+00   0.00000000000000E+00   4.91525651647390E-16   0.00000000000000E+00   0.00000000000000E+00
      0.00000000000000E+00   0.00000000000000E+00   4.57710627019308E-08   2.39531861280165E-16   4.57710629414627E-08
     -1.08273405502585E-16  -7.80000000000000E-01  -7.80000000000000E-01   0.00000000000000E+00   0.00000000000000E+00
     -4.57710633421930E-08  -5.60867254514133E-12  -4.57766720147381E-08  -3.84966628194890E-16
      2.50000000000000E-01
     -2.50000000000000E-02  -2.50000000000000E-02   0.00000000000000E+00   0.00000000000000E+00   0.00000000000000E+00
      0.00000000000000E+00   0.00000000000000E+00   4.90327952843704E-16   0.00000000000000E+00   0.00000000000000E+00
      0.00000000000000E+00   0.00000000000000E+00   4.84716120354643E-08   6.42658555672397E-17   4.84716120997301E-08
     -1.07650768449178E-16  -7.80000000000000E-01  -7.80000000000000E-01   0.00000000000000E+00   0.00000000000000E+00
     -4.84716139111240E-08  -4.85619006802711E-12  -4.84764701011920E-08  -3.84401061341525E-16
      2.66666666666667E-01
     -2.66666666666667E-02  -2.66666666666667E-02   0.00000000000000E+00   0.00000000000000E+00   0.00000000000000E+00
      0.00000000000000E+00   0.00000000000000E+00   4.89129819763388E-16   0.00000000000000E+00   0.00000000000000E+00
      0.00000000000000E+00   0.00000000000000E+00   5.13306347975085E-08  -1.02634350569013E-13   5.13305321631579E-08
     -1.07027967879656E-16  -7.80000000000000E-01  -7.80000000000000E-01   0.00000000000000E+00   0.00000000000000E+00
     -5.13306546415769E-08  -6.15286122689767E-12  -5.13368075028038E-08  -3.83835414202882E-16
      2.83333333333333E-01
     -2.83333333333333E-02  -2.83333333333333E-02   0.00000000000000E+00   0.00000000000000E+00   0.00000000000000E+00
      0.00000000000000E+00   0.00000000000000E+00   4.87931243049624E-16   0.00000000000000E+00   0.00000000000000E+00
      0.00000000000000E+00   0.00000000000000E+00   5.43573364454556E-08   7.55635917721507E-15   5.43573440018148E-08
     -1.06405004450394E-16  -7.80000000000000E-01  -7.80000000000000E-01   0.00000000000000E+00   0.00000000000000E+00
     -5.43573462020124E-08  -9.45690055682414E-12  -5.43668031025692E-08  -3.83269681393233E-16
      3.00000000000000E-01
     -3.00000000000000E-02  -3.00000000000000E-02   0.00000000000000E+00   0.00000000000000E+00   0.00000000000000E+00
      0.00000000000000E+00   0.00000000000000E+00   4.86732224961361E-16   0.00000000000000E+00   0.00000000000000E+00
      0.00000000000000E+00   0.00000000000000E+00   5.75617262159628E-08  -1.15518873755465E-13   5.75616106970891E-08
     -1.05781878826258E-16  -7.80000000000000E-01  -7.80000000000000E-01   0.00000000000000E+00   0.00000000000000E+00
     -5.75617344736194E-08  -1.44587924971012E-11  -5.75761932661165E-08  -3.82703869455073E-16
      3.16666666666667E-01
     -3.16666666666667E-02  -3.16666666666667E-02   0.00000000000000E+00   0.00000000000000E+00   0.00000000000000E+00
      0.00000000000000E+00   0.00000000000000E+00   4.85532754098167E-16   0.00000000000000E+00   0.00000000000000E+00
      0.00000000000000E+00   0.00000000000000E+00   6.09543257800162E-08   4.76357985534820E-17   6.09543258276520E-08
     -1.05158591734278E-16  -7.80000000000000E-01  -7.80000000000000E-01   0.00000000000000E+00   0.00000000000000E+00
     -6.09543259891235E-08  -1.04648327302826E-11  -6.09647908218538E-08  -3.82137971212090E-16
      3.33333333333333E-01
     -3.33333333333333E-02  -3.33333333333333E-02   0.00000000000000E+00   0.00000000000000E+00   0.00000000000000E+00
      0.00000000000000E+00   0.00000000000000E+00   4.84332833215997E-16   0.00000000000000E+00   0.00000000000000E+00
      0.00000000000000E+00   0.00000000000000E+00   6.45457465768683E-08  -9.09537569875315E-14   6.45456556231113E-08
     -1.04535143910421E-16  -7.80000000000000E-01  -7.80000000000000E-01   0.00000000000000E+00   0.00000000000000E+00
     -6.45457782929966E-08   1.03819366327435E-14  -6.45457679110599E-08  -3.81571993963327E-16
      3.50000000000000E-01
     -3.50000000000000E-02  -3.50000000000000E-02   0.00000000000000E+00   0.00000000000000E+00   0.00000000000000E+00
      0.00000000000000E+00   0.00000000000000E+00   4.83132453318732E-16   0.00000000000000E+00   0.00000000000000E+00
      0.00000000000000E+00   0.00000000000000E+00   6.83474699938063E-08  -1.03599742421471E-13   6.83473663940639E-08
     -1.03911536135938E-16  -7.80000000000000E-01  -7.80000000000000E-01   0.00000000000000E+00   0.00000000000000E+00
     -6.83474897500068E-08   1.41892107117983E-11  -6.83333005392950E-08  -3.81005933275389E-16
      3.66666666666667E-01
     -3.66666666666667E-02  -3.66666666666667E-02   0.00000000000000E+00   0.00000000000000E+00   0.00000000000000E+00
      0.00000000000000E+00   0.00000000000000E+00   4.81931610598564E-16   0.00000000000000E+00   0.00000000000000E+00
      0.00000000000000E+00   0.00000000000000E+00   7.23711108496682E-08  -6.83426537240349E-14   7.23710425070145E-08
     -1.03287769223622E-16  -7.80000000000000E-01  -7.80000000000000E-01   0.00000000000000E+00   0.00000000000000E+00
     -7.23710415055899E-08   1.46707567334979E-11  -7.23563707488564E-08  -3.80439790174935E-16
      3.83333333333333E-01
     -3.83333333333333E-02  -3.83333333333333E-02   0.00000000000000E+00   0.00000000000000E+00   0.00000000000000E+00
      0.00000000000000E+00   0.00000000000000E+00   4.80730302719386E-16   0.00000000000000E+00   0.00000000000000E+00
      0.00000000000000E+00   0.00000000000000E+00   7.66296279007721E-08   3.49869244361059E-15   7.66296313994645E-08
     -1.02663844022117E-16  -7.80000000000000E-01  -7.80000000000000E-01   0.00000000000000E+00   0.00000000000000E+00
     -7.66296309281633E-08   7.14474320155199E-12  -7.66224861849617E-08  -3.79873567218251E-16
      4.00000000000000E-01
     -4.00000000000000E-02  -4.00000000000000E-02   0.00000000000000E+00   0.00000000000000E+00   0.00000000000000E+00
      0.00000000000000E+00   0.00000000000000E+00   4.79528523661132E-16   0.00000000000000E+00   0.00000000000000E+00
      0.00000000000000E+00   0.00000000000000E+00   8.11372270846282E-08  -1.02169804421380E-13   8.11371249148238E-08
     -1.02039761428191E-16  -7.80000000000000E-01  -7.80000000000000E-01   0.00000000000000E+00   0.00000000000000E+00
     -8.11372467180387E-08   1.23136282544465E-11  -8.11249330897843E-08  -3.79307263438846E-16
      4.16666666666667E-01
     -4.16666666666667E-02  -4.16666666666667E-02   0.00000000000000E+00   0.00000000000000E+00   0.00000000000000E+00
      0.00000000000000E+00   0.00000000000000E+00   4.78326265131886E-16   0.00000000000000E+00   0.00000000000000E+00
      0.00000000000000E+00   0.00000000000000E+00   8.59085170939541E-08  -1.44177140765497E-13   8.59083729168133E-08
     -1.01415522386340E-16  -7.80000000000000E-01  -7.80000000000000E-01   0.00000000000000E+00   0.00000000000000E+00
     -8.59084951056522E-08   1.19973265348066E-11  -8.58964977791174E-08  -3.78740875658322E-16
      4.33333333333333E-01
     -4.33333333333333E-02  -4.33333333333333E-02   0.00000000000000E+00   0.00000000000000E+00   0.00000000000000E+00
      0.00000000000000E+00   0.00000000000000E+00   4.77123522971992E-16   0.00000000000000E+00   0.00000000000000E+00
      0.00000000000000E+00   0.00000000000000E+00   9.09586278567701E-08  -1.06490487831628E-13   9.09585213662823E-08
     -1.00791127863261E-16  -7.80000000000000E-01  -7.80000000000000E-01   0.00000000000000E+00   0.00000000000000E+00
     -9.09586411470783E-08   2.03590592234666E-11  -9.09382820878548E-08  -3.78174405213925E-16
      4.50000000000000E-01
     -4.50000000000000E-02  -4.50000000000000E-02   0.00000000000000E+00   0.00000000000000E+00   0.00000000000000E+00
      0.00000000000000E+00   0.00000000000000E+00   4.75920291973983E-16   0.00000000000000E+00   0.00000000000000E+00
      0.00000000000000E+00   0.00000000000000E+00   9.63036528610287E-08  -8.95752719590115E-14   9.63035632857567E-08
     -1.00166578876726E-16  -7.80000000000000E-01  -7.80000000000000E-01   0.00000000000000E+00   0.00000000000000E+00
     -9.63036810780919E-08   4.05771471625054E-11  -9.62631039309294E-08  -3.77607852502442E-16
      4.66666666666667E-01
     -4.66666666666667E-02  -4.66666666666667E-02   0.00000000000000E+00   0.00000000000000E+00   0.00000000000000E+00
      0.00000000000000E+00   0.00000000000000E+00   4.74716566624360E-16   0.00000000000000E+00   0.00000000000000E+00
      0.00000000000000E+00   0.00000000000000E+00   1.01960450022550E-07  -1.26719091047619E-13   1.01960323303459E-07
     -9.95418764845479E-17  -7.80000000000000E-01  -7.80000000000000E-01   0.00000000000000E+00   0.00000000000000E+00
     -1.01960440694448E-07   6.73998930260775E-11  -1.01893040801422E-07  -3.77041217814461E-16
      4.83333333333333E-01
     -4.83333333333333E-02  -4.83333333333333E-02   0.00000000000000E+00   0.00000000000000E+00   0.00000000000000E+00
      0.00000000000000E+00   0.00000000000000E+00   4.73512340347132E-16   0.00000000000000E+00   0.00000000000000E+00
      0.00000000000000E+00   0.00000000000000E+00   1.07946545080182E-07  -8.28109533397282E-14   1.07946462269229E-07
     -9.89170217934732E-17  -7.80000000000000E-01  -7.80000000000000E-01   0.00000000000000E+00   0.00000000000000E+00
     -1.07946458726912E-07   3.36825414845077E-11  -1.07912776185427E-07  -3.76474500440190E-16
      5.00000000000000E-01
     -5.00000000000000E-02  -5.00000000000000E-02   0.00000000000000E+00   0.00000000000000E+00   0.00000000000000E+00
      0.00000000000000E+00   0.00000000000000E+00   4.72307610484726E-16   0.00000000000000E+00   0.00000000000000E+00
      0.00000000000000E+00   0.00000000000000E+00   1.14281119983834E-07  -1.00988082195820E-13   1.14281018995751E-07
     -9.82920159493391E-17  -7.80000000000000E-01  -7.80000000000000E-01   0.00000000000000E+00   0.00000000000000E+00
     -1.14281131003469E-07   7.92913278015943E-11  -1.14201839675668E-07  -3.75907704174320E-16
      5.16666666666667E-01
     -5.16666666666667E-02  -5.16666666666667E-02   0.00000000000000E+00   0.00000000000000E+00   0.00000000000000E+00
      0.00000000000000E+00   0.00000000000000E+00   4.71102366023731E-16   0.00000000000000E+00   0.00000000000000E+00
      0.00000000000000E+00   0.00000000000000E+00   1.20984887358014E-07  -1.00232195259550E-13   1.20984787125819E-07
     -9.76668601628910E-17  -7.80000000000000E-01  -7.80000000000000E-01   0.00000000000000E+00   0.00000000000000E+00
     -1.20984896657203E-07   9.84788756937203E-11  -1.20886417781509E-07  -3.75340824004845E-16
      5.33333333333333E-01
     -5.33333333333333E-02  -5.33333333333333E-02   0.00000000000000E+00   0.00000000000000E+00   0.00000000000000E+00
      0.00000000000000E+00   0.00000000000000E+00   4.69896601293116E-16   0.00000000000000E+00   0.00000000000000E+00
      0.00000000000000E+00   0.00000000000000E+00   1.28079207169001E-07  -1.02762180524181E-13   1.28079104406821E-07
     -9.70415556884536E-17  -7.80000000000000E-01  -7.80000000000000E-01   0.00000000000000E+00   0.00000000000000E+00
     -1.28079211233299E-07   1.13604931510467E-10  -1.27965606301789E-07  -3.74773860870743E-16
      5.50000000000000E-01
     -5.50000000000000E-02  -5.50000000000000E-02   0.00000000000000E+00   0.00000000000000E+00   0.00000000000000E+00
      0.00000000000000E+00   0.00000000000000E+00   4.68690309550732E-16   0.00000000000000E+00   0.00000000000000E+00
      0.00000000000000E+00   0.00000000000000E+00   1.35586576561207E-07  -9.37931590366430E-14   1.35586482768048E-07
     -9.64161038256236E-17  -7.80000000000000E-01  -7.80000000000000E-01   0.00000000000000E+00   0.00000000000000E+00
     -1.35586583361335E-07   1.51159545996238E-10  -1.35435423815339E-07  -3.74206814919668E-16
      5.66666666666667E-01
     -5.66666666666667E-02  -5.66666666666667E-02   0.00000000000000E+00   0.00000000000000E+00   0.00000000000000E+00
      0.00000000000000E+00   0.00000000000000E+00   4.67483483949342E-16   0.00000000000000E+00   0.00000000000000E+00
      0.00000000000000E+00   0.00000000000000E+00   1.43530602974857E-07  -8.07596549489168E-14   1.43530522215202E-07
     -9.57905059316840E-17  -7.80000000000000E-01  -7.80000000000000E-01   0.00000000000000E+00   0.00000000000000E+00
     -1.43530621045411E-07   2.20629697959616E-10  -1.43309991347452E-07  -3.73639686421623E-16
      5.83333333333333E-01
     -5.83333333333333E-02  -5.83333333333333E-02   0.00000000000000E+00   0.00000000000000E+00   0.00000000000000E+00
      0.00000000000000E+00   0.00000000000000E+00   4.66276117501813E-16   0.00000000000000E+00   0.00000000000000E+00
      0.00000000000000E+00   0.00000000000000E+00   1.51936178290741E-07  -9.11700481234279E-14   1.51936087120693E-07
     -9.51647634180890E-17  -7.80000000000000E-01  -7.80000000000000E-01   0.00000000000000E+00   0.00000000000000E+00
     -1.51936181115364E-07   3.19906144980684E-10  -1.51616274970383E-07  -3.73072475728633E-16
      6.00000000000000E-01
     -6.00000000000000E-02  -6.00000000000000E-02   0.00000000000000E+00   0.00000000000000E+00   0.00000000000000E+00
      0.00000000000000E+00   0.00000000000000E+00   4.65068202788837E-16   0.00000000000000E+00   0.00000000000000E+00
      0.00000000000000E+00   0.00000000000000E+00   1.60829648257759E-07  -1.29991523405517E-13   1.60829518266235E-07
     -9.45388777496480E-17  -7.80000000000000E-01  -7.80000000000000E-01   0.00000000000000E+00   0.00000000000000E+00
     -1.60829607540618E-07   4.42511986832462E-10  -1.60387095553786E-07  -3.72505183020297E-16
      6.16666666666667E-01
     -6.16666666666667E-02  -6.16666666666667E-02   0.00000000000000E+00   0.00000000000000E+00   0.00000000000000E+00
      0.00000000000000E+00   0.00000000000000E+00   4.63859731899881E-16   0.00000000000000E+00   0.00000000000000E+00
      0.00000000000000E+00   0.00000000000000E+00   1.70238727646290E-07  -9.13579844310592E-14   1.70238636288306E-07
     -9.39128504593268E-17  -7.80000000000000E-01  -7.80000000000000E-01   0.00000000000000E+00   0.00000000000000E+00
     -1.70238708928433E-07   5.97254968852777E-10  -1.69641453959580E-07  -3.71937808229730E-16
      6.33333333333334E-01
     -6.33333333333334E-02  -6.33333333333334E-02   0.00000000000000E+00   0.00000000000000E+00   0.00000000000000E+00
      0.00000000000000E+00   0.00000000000000E+00   4.62650696186069E-16   0.00000000000000E+00   0.00000000000000E+00
      0.00000000000000E+00   0.00000000000000E+00   1.80193899240575E-07  -9.79538819934038E-14   1.80193801286693E-07
     -9.32866831339727E-17  -7.80000000000000E-01  -7.80000000000000E-01   0.00000000000000E+00   0.00000000000000E+00
     -1.80193871405629E-07   7.37733958752491E-10  -1.79456137446877E-07  -3.71370350741514E-16
      6.50000000000000E-01
     -6.50000000000000E-02  -6.50000000000000E-02   0.00000000000000E+00   0.00000000000000E+00   0.00000000000000E+00
      0.00000000000000E+00   0.00000000000000E+00   4.61441083516166E-16   0.00000000000000E+00   0.00000000000000E+00
      0.00000000000000E+00   0.00000000000000E+00   1.90726511449095E-07   8.03605873450861E-16   1.90726512252701E-07
     -9.26603774284317E-17  -7.80000000000000E-01  -7.80000000000000E-01   0.00000000000000E+00   0.00000000000000E+00
     -1.90726512870734E-07   4.18445854310193E-10  -1.90308067016424E-07  -3.70802806190451E-16
      6.66666666666667E-01
     -6.66666666666667E-02  -6.66666666666667E-02   0.00000000000000E+00   0.00000000000000E+00   0.00000000000000E+00
      0.00000000000000E+00   0.00000000000000E+00   4.60230888648395E-16   0.00000000000000E+00   0.00000000000000E+00
      0.00000000000000E+00   0.00000000000000E+00   2.01869770979684E-07  -2.52144571468508E-15   2.01869768458239E-07
     -9.20339350507829E-17  -7.80000000000000E-01  -7.80000000000000E-01   0.00000000000000E+00   0.00000000000000E+00
     -2.01869767010330E-07   3.71016995353948E-10  -2.01498750014976E-07  -3.70235179395766E-16
      6.83333333333334E-01
     -6.83333333333334E-02  -6.83333333333334E-02   0.00000000000000E+00   0.00000000000000E+00   0.00000000000000E+00
      0.00000000000000E+00   0.00000000000000E+00   4.59020101382804E-16   0.00000000000000E+00   0.00000000000000E+00
      0.00000000000000E+00   0.00000000000000E+00   2.13658123000027E-07   2.05781114481388E-15   2.13658125057838E-07
     -9.14073577808131E-17  -7.80000000000000E-01  -7.80000000000000E-01   0.00000000000000E+00   0.00000000000000E+00
     -2.13658127084930E-07   5.59726033449838E-10  -2.13098401051480E-07  -3.69667469447026E-16
      7.00000000000001E-01
     -7.00000000000000E-02  -7.00000000000000E-02   0.00000000000000E+00   0.00000000000000E+00   0.00000000000000E+00
      0.00000000000000E+00   0.00000000000000E+00   4.57808714636331E-16   0.00000000000000E+00   0.00000000000000E+00
      0.00000000000000E+00   0.00000000000000E+00   2.26128441127565E-07  -8.70138440885927E-14   2.26128354113721E-07
     -9.07806474645017E-17  -7.80000000000000E-01  -7.80000000000000E-01   0.00000000000000E+00   0.00000000000000E+00
     -2.26128393568129E-07   1.24935005734739E-09  -2.24879043510782E-07  -3.69099678896060E-16
      7.16666666666667E-01
     -7.16666666666667E-02  -7.16666666666667E-02   0.00000000000000E+00   0.00000000000000E+00   0.00000000000000E+00
      0.00000000000000E+00   0.00000000000000E+00   4.56596712034932E-16   0.00000000000000E+00   0.00000000000000E+00
      0.00000000000000E+00   0.00000000000000E+00   2.39319119890047E-07   2.69563729966686E-14   2.39319146846420E-07
     -9.01538060429092E-17  -7.80000000000000E-01  -7.80000000000000E-01   0.00000000000000E+00   0.00000000000000E+00
     -2.39319167065603E-07   1.31362899950529E-09  -2.38005538066098E-07  -3.68531800120752E-16
      7.33333333333334E-01
     -7.33333333333334E-02  -7.33333333333334E-02   0.00000000000000E+00   0.00000000000000E+00   0.00000000000000E+00
      0.00000000000000E+00   0.00000000000000E+00   4.55384087211797E-16   0.00000000000000E+00   0.00000000000000E+00
      0.00000000000000E+00   0.00000000000000E+00   2.53272731507266E-07  -1.15550902018555E-14   2.53272719952175E-07
     -8.95268354882613E-17  -7.80000000000000E-01  -7.80000000000000E-01   0.00000000000000E+00   0.00000000000000E+00
     -2.53272720073536E-07   9.14870304551365E-10  -2.52357849768984E-07  -3.67963836624395E-16
      7.50000000000001E-01
     -7.50000000000001E-02  -7.50000000000001E-02   0.00000000000000E+00   0.00000000000000E+00   0.00000000000000E+00
      0.00000000000000E+00   0.00000000000000E+00   4.54170828697125E-16   0.00000000000000E+00   0.00000000000000E+00
      0.00000000000000E+00   0.00000000000000E+00   2.68032448510795E-07  -7.35534628259826E-15   2.68032441155449E-07
     -8.88997378709606E-17  -7.80000000000000E-01  -7.80000000000000E-01   0.00000000000000E+00   0.00000000000000E+00
     -2.68032441140272E-07   3.69315255892975E-10  -2.67663125884379E-07  -3.67395787279862E-16
      7.66666666666667E-01
     -7.66666666666667E-02  -7.66666666666667E-02   0.00000000000000E+00   0.00000000000000E+00   0.00000000000000E+00
      0.00000000000000E+00   0.00000000000000E+00   4.52956930822087E-16   0.00000000000000E+00   0.00000000000000E+00
      0.00000000000000E+00   0.00000000000000E+00   2.83643419414281E-07   6.39223226075104E-15   2.83643425806513E-07
     -8.82725153254019E-17  -7.80000000000000E-01  -7.80000000000000E-01   0.00000000000000E+00   0.00000000000000E+00
     -2.83643425353538E-07  -4.77229507504204E-11  -2.83691148304288E-07  -3.66827657379270E-16
      7.83333333333334E-01
     -7.83333333333334E-02  -7.83333333333334E-02   0.00000000000000E+00   0.00000000000000E+00   0.00000000000000E+00
      0.00000000000000E+00   0.00000000000000E+00   4.51742379753793E-16   0.00000000000000E+00   0.00000000000000E+00
      0.00000000000000E+00   0.00000000000000E+00   3.00153665979183E-07  -3.43597054295176E-14   3.00153631619477E-07
     -8.76451700825386E-17  -7.80000000000000E-01  -7.80000000000000E-01   0.00000000000000E+00   0.00000000000000E+00
     -3.00153614263093E-07  -3.48183996681022E-10  -3.00501798259774E-07  -3.66259444206877E-16
      8.00000000000001E-01
     -8.00000000000001E-02  -8.00000000000001E-02   0.00000000000000E+00   0.00000000000000E+00   0.00000000000000E+00
      0.00000000000000E+00   0.00000000000000E+00   4.50527166164553E-16   0.00000000000000E+00   0.00000000000000E+00