DF-ISE text

Info {
  version   = 1.0
  type      = xyplot
  datasets  = [
    "time"
    "gate OuterVoltage" "gate InnerVoltage" "gate QuasiFermiPotential" "gate DisplacementCurrent" "gate eCurrent"
    "gate hCurrent" "gate TotalCurrent" "gate Charge" "source OuterVoltage" "source InnerVoltage"
    "source QuasiFermiPotential" "source DisplacementCurrent" "source eCurrent" "source hCurrent" "source TotalCurrent"
    "source Charge" "drain OuterVoltage" "drain InnerVoltage" "drain QuasiFermiPotential" "drain DisplacementCurrent"
    "drain eCurrent" "drain hCurrent" "drain TotalCurrent" "drain Charge" ]
  functions = [
    Time
    OuterVoltage InnerVoltage QuasiFermiPotential DisplacementCurrent eCurrent
    hCurrent TotalCurrent Charge OuterVoltage InnerVoltage
    QuasiFermiPotential DisplacementCurrent eCurrent hCurrent TotalCurrent
    Charge OuterVoltage InnerVoltage QuasiFermiPotential DisplacementCurrent
    eCurrent hCurrent TotalCurrent Charge ]
}

Data {
      0.00000000000000E+00
      0.00000000000000E+00   0.00000000000000E+00   0.00000000000000E+00   0.00000000000000E+00   0.00000000000000E+00
      0.00000000000000E+00   0.00000000000000E+00  -5.39968500753150E-16   0.00000000000000E+00   0.00000000000000E+00
      0.00000000000000E+00   0.00000000000000E+00  -2.32033221429614E-08   6.36522977888887E-21  -2.32033221429550E-08
      1.20886208626984E-16   8.50000000000000E-01   8.50000000000000E-01   0.00000000000000E+00   0.00000000000000E+00
      2.32218531184134E-08  -5.51453016540078E-18   2.32218531128989E-08   4.20471200942281E-16
      1.66666666666667E-02
      2.50000000000000E-02   2.50000000000000E-02   0.00000000000000E+00   0.00000000000000E+00   0.00000000000000E+00
      0.00000000000000E+00   0.00000000000000E+00  -5.22135553695697E-16   0.00000000000000E+00   0.00000000000000E+00
      0.00000000000000E+00   0.00000000000000E+00  -5.56077896462208E-08   1.55841260001795E-17  -5.56077896306367E-08
      1.11553556151369E-16   8.50000000000000E-01   8.50000000000000E-01   0.00000000000000E+00   0.00000000000000E+00
      5.55116630132523E-08  -3.72148789781037E-17   5.55116629760374E-08   4.12049252081728E-16
      3.33333333333333E-02
      5.00000000000000E-02   5.00000000000000E-02   0.00000000000000E+00   0.00000000000000E+00   0.00000000000000E+00
      0.00000000000000E+00   0.00000000000000E+00  -5.04212066970827E-16   0.00000000000000E+00   0.00000000000000E+00
      0.00000000000000E+00   0.00000000000000E+00  -1.32771281534687E-07   6.69320762038096E-20  -1.32771281534620E-07
      1.02178409046667E-16   8.50000000000000E-01   8.50000000000000E-01   0.00000000000000E+00   0.00000000000000E+00
      1.32578442915700E-07  -1.54155674971487E-18   1.32578442914158E-07   4.03609736291350E-16
      5.00000000000000E-02
      7.50000000000000E-02   7.50000000000000E-02   0.00000000000000E+00   0.00000000000000E+00   0.00000000000000E+00
      0.00000000000000E+00   0.00000000000000E+00  -4.86182110433495E-16   0.00000000000000E+00   0.00000000000000E+00
      0.00000000000000E+00   0.00000000000000E+00  -3.15370737063080E-07  -8.60865673682630E-23  -3.15370737063080E-07
      9.27624623200425E-17   8.50000000000000E-01   8.50000000000000E-01   0.00000000000000E+00   0.00000000000000E+00
      3.16206334701881E-07  -3.64875913403555E-20   3.16206334701844E-07   3.95152683966212E-16
      6.66666666666667E-02
      1.00000000000000E-01   1.00000000000000E-01   0.00000000000000E+00   0.00000000000000E+00   0.00000000000000E+00
      0.00000000000000E+00   0.00000000000000E+00  -4.68019867852728E-16   0.00000000000000E+00   0.00000000000000E+00
      0.00000000000000E+00   0.00000000000000E+00  -7.43782278851482E-07   4.14864053427884E-22  -7.43782278851482E-07
      8.33097285138167E-17   8.50000000000000E-01   8.50000000000000E-01   0.00000000000000E+00   0.00000000000000E+00
      7.41484299201674E-07  -2.20667059239463E-20   7.41484299201652E-07   3.86678205534004E-16
      8.33333333333333E-02
      1.25000000000000E-01   1.25000000000000E-01   0.00000000000000E+00   0.00000000000000E+00   0.00000000000000E+00
      0.00000000000000E+00   0.00000000000000E+00  -4.49679293703304E-16   0.00000000000000E+00   0.00000000000000E+00
      0.00000000000000E+00   0.00000000000000E+00  -1.73600470858534E-06  -2.39073497240544E-21  -1.73600470858535E-06
      7.38281581472869E-17   8.50000000000000E-01   8.50000000000000E-01   0.00000000000000E+00   0.00000000000000E+00
      1.73608390411373E-06  -2.81983038696177E-19   1.73608390411345E-06   3.78186339468295E-16
      1.00000000000000E-01
      1.50000000000000E-01   1.50000000000000E-01   0.00000000000000E+00   0.00000000000000E+00   0.00000000000000E+00
      0.00000000000000E+00   0.00000000000000E+00  -4.31079275630368E-16   0.00000000000000E+00   0.00000000000000E+00
      0.00000000000000E+00   0.00000000000000E+00  -3.98765887182738E-06  -3.72517349577335E-20  -3.98765887182741E-06
      6.43321602833473E-17   8.50000000000000E-01   8.50000000000000E-01   0.00000000000000E+00   0.00000000000000E+00
      3.98764538842316E-06  -1.72924806042224E-19   3.98764538842298E-06   3.69680037382626E-16
      1.16666666666667E-01
      1.75000000000000E-01   1.75000000000000E-01   0.00000000000000E+00   0.00000000000000E+00   0.00000000000000E+00
      0.00000000000000E+00   0.00000000000000E+00  -4.12067673204702E-16   0.00000000000000E+00   0.00000000000000E+00
      0.00000000000000E+00   0.00000000000000E+00  -8.93110459859657E-06  -6.86736956322344E-22  -8.93110459859657E-06
      5.48460173258144E-17   8.50000000000000E-01   8.50000000000000E-01   0.00000000000000E+00   0.00000000000000E+00
      8.93105172732098E-06  -1.10663288011268E-19   8.93105172732087E-06   3.61159766068343E-16
      1.33333333333333E-01
      2.00000000000000E-01   2.00000000000000E-01   0.00000000000000E+00   0.00000000000000E+00   0.00000000000000E+00
      0.00000000000000E+00   0.00000000000000E+00  -3.92395847201737E-16   0.00000000000000E+00   0.00000000000000E+00
      0.00000000000000E+00   0.00000000000000E+00  -1.92290921696358E-05  -1.00482630060020E-22  -1.92290921696358E-05
      4.54067156889672E-17   8.50000000000000E-01   8.50000000000000E-01   0.00000000000000E+00   0.00000000000000E+00
      1.92290700839393E-05  -4.22622117371580E-20   1.92290700839393E-05   3.52633394983285E-16
      1.50000000000000E-01
      2.25000000000000E-01   2.25000000000000E-01   0.00000000000000E+00   0.00000000000000E+00   0.00000000000000E+00
      0.00000000000000E+00   0.00000000000000E+00  -3.71704252820850E-16   0.00000000000000E+00   0.00000000000000E+00
      0.00000000000000E+00   0.00000000000000E+00  -3.90863643123719E-05  -4.53228816391352E-22  -3.90863643123719E-05
      3.60618176813562E-17   8.50000000000000E-01   8.50000000000000E-01   0.00000000000000E+00   0.00000000000000E+00
      3.90863464952795E-05  -2.37957132966171E-20   3.90863464952795E-05   3.44110233561786E-16
      1.66666666666667E-01
      2.50000000000000E-01   2.50000000000000E-01   0.00000000000000E+00   0.00000000000000E+00   0.00000000000000E+00
      0.00000000000000E+00   0.00000000000000E+00  -3.49688724449753E-16   0.00000000000000E+00   0.00000000000000E+00
      0.00000000000000E+00   0.00000000000000E+00  -7.22165721398332E-05  -1.59729576718642E-22  -7.22165721398332E-05
      2.68485189856499E-17   8.50000000000000E-01   8.50000000000000E-01   0.00000000000000E+00   0.00000000000000E+00
      7.22165676715435E-05  -1.37569986788320E-20   7.22165676715435E-05   3.35578630185584E-16
      1.83333333333333E-01
      2.75000000000000E-01   2.75000000000000E-01   0.00000000000000E+00   0.00000000000000E+00   0.00000000000000E+00
      0.00000000000000E+00   0.00000000000000E+00  -3.26229213485833E-16   0.00000000000000E+00   0.00000000000000E+00
      0.00000000000000E+00   0.00000000000000E+00  -1.20176298338002E-04  -2.30721307310032E-25  -1.20176298338002E-04
      1.77897693429417E-17   8.50000000000000E-01   8.50000000000000E-01   0.00000000000000E+00   0.00000000000000E+00
      1.20176300797784E-04  -2.92021165190364E-24   1.20176300797784E-04   3.27053453996301E-16
      2.00000000000000E-01
      3.00000000000000E-01   3.00000000000000E-01   0.00000000000000E+00   0.00000000000000E+00   0.00000000000000E+00
      0.00000000000000E+00   0.00000000000000E+00  -3.01240439930456E-16   0.00000000000000E+00   0.00000000000000E+00
      0.00000000000000E+00   0.00000000000000E+00  -1.84171365506063E-04  -1.79729317341864E-23  -1.84171365506063E-04
      8.89278959810360E-18   8.50000000000000E-01   8.50000000000000E-01   0.00000000000000E+00   0.00000000000000E+00
      1.84169526613468E-04  -2.24847227507213E-24   1.84169526613468E-04   3.18531783202788E-16
      2.16666666666667E-01
      3.25000000000000E-01   3.25000000000000E-01   0.00000000000000E+00   0.00000000000000E+00   0.00000000000000E+00
      0.00000000000000E+00   0.00000000000000E+00  -2.74816298313399E-16   0.00000000000000E+00   0.00000000000000E+00
      0.00000000000000E+00   0.00000000000000E+00  -2.63186834274879E-04  -2.12531174126015E-24  -2.63186834274879E-04
      1.42847945861612E-19   8.50000000000000E-01   8.50000000000000E-01   0.00000000000000E+00   0.00000000000000E+00
      2.63186705170066E-04  -4.56592548771042E-24   2.63186705170066E-04   3.09994764746799E-16
      2.33333333333333E-01
      3.50000000000000E-01   3.50000000000000E-01   0.00000000000000E+00   0.00000000000000E+00   0.00000000000000E+00
      0.00000000000000E+00   0.00000000000000E+00  -2.47141587780354E-16   0.00000000000000E+00   0.00000000000000E+00
      0.00000000000000E+00   0.00000000000000E+00  -3.55189897693959E-04  -3.39867176233514E-22  -3.55189897693959E-04
     -8.48184840304779E-18   8.50000000000000E-01   8.50000000000000E-01   0.00000000000000E+00   0.00000000000000E+00
      3.55191704988063E-04  -2.44930012354113E-21   3.55191704988063E-04   3.01434414874979E-16
      2.50000000000000E-01
      3.75000000000000E-01   3.75000000000000E-01   0.00000000000000E+00   0.00000000000000E+00   0.00000000000000E+00
      0.00000000000000E+00   0.00000000000000E+00  -2.18416819443103E-16   0.00000000000000E+00   0.00000000000000E+00
      0.00000000000000E+00   0.00000000000000E+00  -4.58049159346427E-04  -2.13271686902989E-22  -4.58049159346427E-04
     -1.70021459529163E-17   8.50000000000000E-01   8.50000000000000E-01   0.00000000000000E+00   0.00000000000000E+00
      4.58049562150448E-04  -2.84591404560544E-23   4.58049562150448E-04   2.92858498005140E-16
      2.66666666666667E-01
      4.00000000000000E-01   4.00000000000000E-01   0.00000000000000E+00   0.00000000000000E+00   0.00000000000000E+00
      0.00000000000000E+00   0.00000000000000E+00  -1.88809750742043E-16   0.00000000000000E+00   0.00000000000000E+00
      0.00000000000000E+00   0.00000000000000E+00  -5.69895358933911E-04   7.01117261242949E-23  -5.69895358933911E-04
     -2.54357618084709E-17   8.50000000000000E-01   8.50000000000000E-01   0.00000000000000E+00   0.00000000000000E+00
      5.69895508856462E-04  -3.20255505054629E-23   5.69895508856462E-04   2.84270546344921E-16
      2.83333333333333E-01
      4.25000000000000E-01   4.25000000000000E-01   0.00000000000000E+00   0.00000000000000E+00   0.00000000000000E+00
      0.00000000000000E+00   0.00000000000000E+00  -1.58452862582470E-16   0.00000000000000E+00   0.00000000000000E+00
      0.00000000000000E+00   0.00000000000000E+00  -6.89189940536282E-04   4.23310090793796E-23  -6.89189940536282E-04
     -3.37971548200603E-17   8.50000000000000E-01   8.50000000000000E-01   0.00000000000000E+00   0.00000000000000E+00
      6.89190004883705E-04  -8.15903495078837E-24   6.89190004883705E-04   2.75669631765000E-16
      3.00000000000000E-01
      4.50000000000000E-01   4.50000000000000E-01   0.00000000000000E+00   0.00000000000000E+00   0.00000000000000E+00
      0.00000000000000E+00   0.00000000000000E+00  -1.27449732698889E-16   0.00000000000000E+00   0.00000000000000E+00
      0.00000000000000E+00   0.00000000000000E+00  -8.14691861941115E-04   2.60536549958867E-24  -8.14691861941115E-04
     -4.20978775031832E-17   8.50000000000000E-01   8.50000000000000E-01   0.00000000000000E+00   0.00000000000000E+00
      8.14691907786434E-04  -1.28884947688149E-24   8.14691907786434E-04   2.67054023516769E-16
      3.16666666666667E-01
      4.75000000000000E-01   4.75000000000000E-01   0.00000000000000E+00   0.00000000000000E+00   0.00000000000000E+00
      0.00000000000000E+00   0.00000000000000E+00  -9.58824740886716E-17   0.00000000000000E+00   0.00000000000000E+00
      0.00000000000000E+00   0.00000000000000E+00  -9.45404523563898E-04  -6.64089135632634E-25  -9.45404523563898E-04
     -5.03471192029877E-17   8.50000000000000E-01   8.50000000000000E-01   0.00000000000000E+00   0.00000000000000E+00
      9.45404542847361E-04  -2.03340213969028E-25   9.45404542847361E-04   2.58422311726619E-16
      3.33333333333333E-01
      5.00000000000000E-01   5.00000000000000E-01   0.00000000000000E+00   0.00000000000000E+00   0.00000000000000E+00
      0.00000000000000E+00   0.00000000000000E+00  -6.38162359593207E-17   0.00000000000000E+00   0.00000000000000E+00
      0.00000000000000E+00   0.00000000000000E+00  -1.08052020455762E-03  -3.22249951606409E-25  -1.08052020455762E-03
     -5.85522285785765E-17   8.50000000000000E-01   8.50000000000000E-01   0.00000000000000E+00   0.00000000000000E+00
      1.08052021594755E-03  -3.57188389433208E-26   1.08052021594755E-03   2.49773791337152E-16
      3.50000000000000E-01
      5.25000000000000E-01   5.25000000000000E-01   0.00000000000000E+00   0.00000000000000E+00   0.00000000000000E+00
      0.00000000000000E+00   0.00000000000000E+00  -3.13038320805168E-17   0.00000000000000E+00   0.00000000000000E+00
      0.00000000000000E+00   0.00000000000000E+00  -1.21937694050735E-03  -1.00961919523801E-25  -1.21937694050735E-03
     -6.67191412794910E-17   8.50000000000000E-01   8.50000000000000E-01   0.00000000000000E+00   0.00000000000000E+00
      1.21937694807382E-03  -6.85465285833070E-27   1.21937694807382E-03   2.41108445556599E-16
      3.66666666666667E-01
      5.50000000000000E-01   5.50000000000000E-01   0.00000000000000E+00   0.00000000000000E+00   0.00000000000000E+00
      0.00000000000000E+00   0.00000000000000E+00   1.61154066461676E-18   0.00000000000000E+00   0.00000000000000E+00
      0.00000000000000E+00   0.00000000000000E+00  -1.36142424750253E-03  -3.94405377388795E-27  -1.36142424750253E-03
     -7.48526984134255E-17   8.50000000000000E-01   8.50000000000000E-01   0.00000000000000E+00   0.00000000000000E+00
      1.36142425132078E-03  -1.56399709103216E-27   1.36142425132078E-03   2.32426962701208E-16
      3.83333333333333E-01
      5.75000000000000E-01   5.75000000000000E-01   0.00000000000000E+00   0.00000000000000E+00   0.00000000000000E+00
      0.00000000000000E+00   0.00000000000000E+00   3.48944132954338E-17   0.00000000000000E+00   0.00000000000000E+00
      0.00000000000000E+00   0.00000000000000E+00  -1.50619829117001E-03  -1.40953135225375E-27  -1.50619829117001E-03
     -8.29569045451419E-17   8.50000000000000E-01   8.50000000000000E-01   0.00000000000000E+00   0.00000000000000E+00
      1.50619829370318E-03  -4.61523850251803E-28   1.50619829370318E-03   2.23730412368199E-16
      4.00000000000000E-01
      6.00000000000000E-01   6.00000000000000E-01   0.00000000000000E+00   0.00000000000000E+00   0.00000000000000E+00
      0.00000000000000E+00   0.00000000000000E+00   6.85162115330957E-17   0.00000000000000E+00   0.00000000000000E+00
      0.00000000000000E+00   0.00000000000000E+00  -1.65330137061739E-03  -1.67350232557900E-26  -1.65330137061739E-03
     -9.10350936653089E-17   8.50000000000000E-01   8.50000000000000E-01   0.00000000000000E+00   0.00000000000000E+00
      1.65330137318745E-03  -1.87076660670658E-28   1.65330137318745E-03   2.15020914573775E-16
      4.16666666666667E-01
      6.25000000000000E-01   6.25000000000000E-01   0.00000000000000E+00   0.00000000000000E+00   0.00000000000000E+00
      0.00000000000000E+00   0.00000000000000E+00   1.02455220995740E-16   0.00000000000000E+00   0.00000000000000E+00
      0.00000000000000E+00   0.00000000000000E+00  -1.80238714507742E-03  -4.53466574326080E-26  -1.80238714507742E-03
     -9.90900714584796E-17   8.50000000000000E-01   8.50000000000000E-01   0.00000000000000E+00   0.00000000000000E+00
      1.80238714654049E-03  -9.57213800047829E-29   1.80238714654049E-03   2.06298466454830E-16
      4.33333333333333E-01
      6.50000000000000E-01   6.50000000000000E-01   0.00000000000000E+00   0.00000000000000E+00   0.00000000000000E+00
      0.00000000000000E+00   0.00000000000000E+00   1.36687193549675E-16   0.00000000000000E+00   0.00000000000000E+00
      0.00000000000000E+00   0.00000000000000E+00  -1.95315889431804E-03  -1.34067959006049E-25  -1.95315889431804E-03
     -1.07124250733192E-16   8.50000000000000E-01   8.50000000000000E-01   0.00000000000000E+00   0.00000000000000E+00
      1.95315889531439E-03  -1.08256585559713E-28   1.95315889531439E-03   1.97561943961508E-16
      4.50000000000000E-01
      6.75000000000000E-01   6.75000000000000E-01   0.00000000000000E+00   0.00000000000000E+00   0.00000000000000E+00
      0.00000000000000E+00   0.00000000000000E+00   1.71190749045775E-16   0.00000000000000E+00   0.00000000000000E+00
      0.00000000000000E+00   0.00000000000000E+00  -2.10535558879343E-03  -1.63948571090349E-25  -2.10535558879343E-03
     -1.15139713148883E-16   8.50000000000000E-01   8.50000000000000E-01   0.00000000000000E+00   0.00000000000000E+00
      2.10535558957827E-03  -7.99276500181338E-29   2.10535558957827E-03   1.88811442912752E-16
      4.66666666666667E-01
      7.00000000000000E-01   7.00000000000000E-01   0.00000000000000E+00   0.00000000000000E+00   0.00000000000000E+00
      0.00000000000000E+00   0.00000000000000E+00   2.05948604969003E-16   0.00000000000000E+00   0.00000000000000E+00
      0.00000000000000E+00   0.00000000000000E+00  -2.25874376868397E-03  -1.08870624183324E-25  -2.25874376868397E-03
     -1.23138270504181E-16   8.50000000000000E-01   8.50000000000000E-01   0.00000000000000E+00   0.00000000000000E+00
      2.25874376927338E-03  -5.72605684592105E-29   2.25874376927338E-03   1.80047437162373E-16
      4.83333333333333E-01
      7.25000000000000E-01   7.25000000000000E-01   0.00000000000000E+00   0.00000000000000E+00   0.00000000000000E+00
      0.00000000000000E+00   0.00000000000000E+00   2.40945997615948E-16   0.00000000000000E+00   0.00000000000000E+00
      0.00000000000000E+00   0.00000000000000E+00  -2.41311387467791E-03  -4.82792389407680E-26  -2.41311387467791E-03
     -1.31121512789258E-16   8.50000000000000E-01   8.50000000000000E-01   0.00000000000000E+00   0.00000000000000E+00
      2.41311387516986E-03  -4.48175768852879E-29   2.41311387516986E-03   1.71270652625632E-16
      5.00000000000000E-01
      7.50000000000000E-01   7.50000000000000E-01   0.00000000000000E+00   0.00000000000000E+00   0.00000000000000E+00
      0.00000000000000E+00   0.00000000000000E+00   2.76170765669748E-16   0.00000000000000E+00   0.00000000000000E+00
      0.00000000000000E+00   0.00000000000000E+00  -2.56827559517448E-03  -1.63094963554866E-26  -2.56827559517448E-03
     -1.39090825641105E-16   8.50000000000000E-01   8.50000000000000E-01   0.00000000000000E+00   0.00000000000000E+00
      2.56827559544032E-03  -3.18339476356147E-29   2.56827559544032E-03   1.62481189525999E-16
      5.16666666666667E-01
      7.75000000000000E-01   7.75000000000000E-01   0.00000000000000E+00   0.00000000000000E+00   0.00000000000000E+00
      0.00000000000000E+00   0.00000000000000E+00   3.11611292468123E-16   0.00000000000000E+00   0.00000000000000E+00
      0.00000000000000E+00   0.00000000000000E+00  -2.72405775804592E-03  -4.66311571557809E-27  -2.72405775804592E-03
     -1.47047452431046E-16   8.50000000000000E-01   8.50000000000000E-01   0.00000000000000E+00   0.00000000000000E+00
      2.72405775827326E-03  -2.40410836937407E-29   2.72405775827326E-03   1.53680256366275E-16
      5.33333333333333E-01
      8.00000000000000E-01   8.00000000000000E-01   0.00000000000000E+00   0.00000000000000E+00   0.00000000000000E+00
      0.00000000000000E+00   0.00000000000000E+00   3.47258798690551E-16   0.00000000000000E+00   0.00000000000000E+00
      0.00000000000000E+00   0.00000000000000E+00  -2.88030440257933E-03  -1.21722908319670E-27  -2.88030440257933E-03
     -1.54992551424760E-16   8.50000000000000E-01   8.50000000000000E-01   0.00000000000000E+00   0.00000000000000E+00
      2.88030440280311E-03  -6.68714098592895E-30   2.88030440280311E-03   1.44867795184039E-16
      5.50000000000000E-01
      8.25000000000000E-01   8.25000000000000E-01   0.00000000000000E+00   0.00000000000000E+00   0.00000000000000E+00
      0.00000000000000E+00   0.00000000000000E+00   3.83104667063732E-16   0.00000000000000E+00   0.00000000000000E+00
      0.00000000000000E+00   0.00000000000000E+00  -3.03687302123724E-03  -3.08166489805489E-28  -3.03687302123724E-03
     -1.62927144110044E-16   8.50000000000000E-01   8.50000000000000E-01   0.00000000000000E+00   0.00000000000000E+00
      3.03687302142987E-03  -3.44484578426009E-30   3.03687302142987E-03   1.36044625602683E-16
      5.66666666666667E-01
      8.50000000000000E-01   8.50000000000000E-01   0.00000000000000E+00   0.00000000000000E+00   0.00000000000000E+00
      0.00000000000000E+00   0.00000000000000E+00   4.19141583179116E-16   0.00000000000000E+00   0.00000000000000E+00
      0.00000000000000E+00   0.00000000000000E+00  -3.19363298481687E-03  -8.28245489001783E-29  -3.19363298481687E-03
     -1.70852158773368E-16   8.50000000000000E-01   8.50000000000000E-01   0.00000000000000E+00   0.00000000000000E+00
      3.19363298499542E-03  -1.89847385070967E-30   3.19363298499542E-03   1.27211094828288E-16
      5.83333333333333E-01
      8.75000000000000E-01   8.75000000000000E-01   0.00000000000000E+00   0.00000000000000E+00   0.00000000000000E+00
      0.00000000000000E+00   0.00000000000000E+00   4.55362818992420E-16   0.00000000000000E+00   0.00000000000000E+00
      0.00000000000000E+00   0.00000000000000E+00  -3.35046496334559E-03  -1.58785322276958E-29  -3.35046496334559E-03
     -1.78768456513742E-16   8.50000000000000E-01   8.50000000000000E-01   0.00000000000000E+00   0.00000000000000E+00
      3.35046496337220E-03  -1.25270975798911E-30   3.35046496337220E-03   1.18367726839857E-16
      6.00000000000000E-01
      9.00000000000000E-01   9.00000000000000E-01   0.00000000000000E+00   0.00000000000000E+00   0.00000000000000E+00
      0.00000000000000E+00   0.00000000000000E+00   4.91762402554191E-16   0.00000000000000E+00   0.00000000000000E+00
      0.00000000000000E+00   0.00000000000000E+00  -3.50725884721127E-03  -5.62222702752991E-30  -3.50725884721127E-03
     -1.86676812357319E-16   8.50000000000000E-01   8.50000000000000E-01   0.00000000000000E+00   0.00000000000000E+00
      3.50725884734565E-03  -7.62979670317071E-31   3.50725884734565E-03   1.09514918684489E-16
      6.16666666666667E-01
      9.25000000000000E-01   9.25000000000000E-01   0.00000000000000E+00   0.00000000000000E+00   0.00000000000000E+00
      0.00000000000000E+00   0.00000000000000E+00   5.28335036899983E-16   0.00000000000000E+00   0.00000000000000E+00
      0.00000000000000E+00   0.00000000000000E+00  -3.66391374741532E-03  -8.00351602992887E-31  -3.66391374741532E-03
     -1.94577953052600E-16   8.50000000000000E-01   8.50000000000000E-01   0.00000000000000E+00   0.00000000000000E+00
      3.66391374751020E-03  -4.99414081569892E-31   3.66391374751020E-03   1.00653089487615E-16
      6.33333333333334E-01
      9.50000000000000E-01   9.50000000000000E-01   0.00000000000000E+00   0.00000000000000E+00   0.00000000000000E+00
      0.00000000000000E+00   0.00000000000000E+00   5.65076160950354E-16   0.00000000000000E+00   0.00000000000000E+00
      0.00000000000000E+00   0.00000000000000E+00  -3.82033662451298E-03  -4.43328748266604E-31  -3.82033662451298E-03
     -2.02472565765975E-16   8.50000000000000E-01   8.50000000000000E-01   0.00000000000000E+00   0.00000000000000E+00
      3.82033662459458E-03  -2.90764698255522E-31   3.82033662459458E-03   9.17825400029703E-17
      6.50000000000000E-01
      9.75000000000001E-01   9.75000000000001E-01   0.00000000000000E+00   0.00000000000000E+00   0.00000000000000E+00
      0.00000000000000E+00   0.00000000000000E+00   6.01981589508474E-16   0.00000000000000E+00   0.00000000000000E+00
      0.00000000000000E+00   0.00000000000000E+00  -3.97644149494361E-03  -1.43098007750096E-31  -3.97644149494361E-03
     -2.10361278110810E-16   8.50000000000000E-01   8.50000000000000E-01   0.00000000000000E+00   0.00000000000000E+00
      3.97644149500638E-03  -2.15482471900077E-31   3.97644149500638E-03   8.29036822040626E-17
      6.66666666666667E-01
      1.00000000000000E+00   1.00000000000000E+00   0.00000000000000E+00   0.00000000000000E+00   0.00000000000000E+00
      0.00000000000000E+00   0.00000000000000E+00   6.39047602464699E-16   0.00000000000000E+00   0.00000000000000E+00
      0.00000000000000E+00   0.00000000000000E+00  -4.13214828271770E-03  -9.44911809905510E-32  -4.13214828271770E-03
     -2.18244662431233E-16   8.50000000000000E-01   8.50000000000000E-01   0.00000000000000E+00   0.00000000000000E+00
      4.13214828276599E-03  -1.42485594760772E-31   4.13214828276599E-03   7.40168894865673E-17
      6.83333333333334E-01
      1.02500000000000E+00   1.02500000000000E+00   0.00000000000000E+00   0.00000000000000E+00   0.00000000000000E+00
      0.00000000000000E+00   0.00000000000000E+00   6.76271107105346E-16   0.00000000000000E+00   0.00000000000000E+00
      0.00000000000000E+00   0.00000000000000E+00  -4.28738335999471E-03  -4.81326367075422E-32  -4.28738335999471E-03
     -2.26123271478052E-16   8.50000000000000E-01   8.50000000000000E-01   0.00000000000000E+00   0.00000000000000E+00
      4.28738336003793E-03  -9.97191478818267E-32   4.28738336003793E-03   6.51224816781256E-17
      7.00000000000001E-01
      1.05000000000000E+00   1.05000000000000E+00   0.00000000000000E+00   0.00000000000000E+00   0.00000000000000E+00
      0.00000000000000E+00   0.00000000000000E+00   7.13649300851848E-16   0.00000000000000E+00   0.00000000000000E+00
      0.00000000000000E+00   0.00000000000000E+00  -4.44207833838810E-03  -7.47888140761473E-32  -4.44207833838810E-03
     -2.33997618816341E-16   8.50000000000000E-01   8.50000000000000E-01   0.00000000000000E+00   0.00000000000000E+00
      4.44207833839659E-03  -7.51028024622058E-32   4.44207833839659E-03   5.62208770362053E-17
      7.16666666666667E-01
      1.07500000000000E+00   1.07500000000000E+00   0.00000000000000E+00   0.00000000000000E+00   0.00000000000000E+00
      0.00000000000000E+00   0.00000000000000E+00   7.51179880300726E-16   0.00000000000000E+00   0.00000000000000E+00
      0.00000000000000E+00   0.00000000000000E+00  -4.59616921811347E-03  -5.08026994836183E-32  -4.59616921811347E-03
     -2.41868180871950E-16   8.50000000000000E-01   8.50000000000000E-01   0.00000000000000E+00   0.00000000000000E+00
      4.59616921815064E-03  -5.55261294033187E-32   4.59616921815064E-03   4.73123892212921E-17
      7.33333333333334E-01
      1.10000000000000E+00   1.10000000000000E+00   0.00000000000000E+00   0.00000000000000E+00   0.00000000000000E+00
      0.00000000000000E+00   0.00000000000000E+00   7.88860895322971E-16   0.00000000000000E+00   0.00000000000000E+00
      0.00000000000000E+00   0.00000000000000E+00  -4.74959625547203E-03  -6.04411465424803E-32  -4.74959625547203E-03
     -2.49735403702225E-16   8.50000000000000E-01   8.50000000000000E-01   0.00000000000000E+00   0.00000000000000E+00
      4.74959625550568E-03  -4.19927550146416E-32   4.74959625550568E-03   3.83973506539632E-17
      7.50000000000001E-01
      1.12500000000000E+00   1.12500000000000E+00   0.00000000000000E+00   0.00000000000000E+00   0.00000000000000E+00
      0.00000000000000E+00   0.00000000000000E+00   8.26690793844715E-16   0.00000000000000E+00   0.00000000000000E+00
      0.00000000000000E+00   0.00000000000000E+00  -4.90230317062569E-03  -5.61737906554334E-32  -4.90230317062569E-03
     -2.57599699936991E-16   8.50000000000000E-01   8.50000000000000E-01   0.00000000000000E+00   0.00000000000000E+00
      4.90230317065516E-03  -3.22826647145777E-32   4.90230317065516E-03   2.94760320883411E-17
      7.66666666666667E-01
      1.15000000000000E+00   1.15000000000000E+00   0.00000000000000E+00   0.00000000000000E+00   0.00000000000000E+00
      0.00000000000000E+00   0.00000000000000E+00   8.64668283529897E-16   0.00000000000000E+00   0.00000000000000E+00
      0.00000000000000E+00   0.00000000000000E+00  -5.05423711073878E-03  -1.29596954035748E-32  -5.05423711073878E-03
     -2.65461450635969E-16   8.50000000000000E-01   8.50000000000000E-01   0.00000000000000E+00   0.00000000000000E+00
      5.05423711076735E-03  -2.54544233490906E-32   5.05423711076735E-03   2.05487577673047E-17
      7.83333333333334E-01
      1.17500000000000E+00   1.17500000000000E+00   0.00000000000000E+00   0.00000000000000E+00   0.00000000000000E+00
      0.00000000000000E+00   0.00000000000000E+00   9.02792463300309E-16   0.00000000000000E+00   0.00000000000000E+00
      0.00000000000000E+00   0.00000000000000E+00  -5.20534877663054E-03  -2.42522732504999E-32  -5.20534877663054E-03
     -2.73321033854384E-16   8.50000000000000E-01   8.50000000000000E-01   0.00000000000000E+00   0.00000000000000E+00
      5.20534877665275E-03  -1.95775878604232E-32   5.20534877665275E-03   1.16158595959674E-17
      8.00000000000001E-01
      1.20000000000000E+00   1.20000000000000E+00   0.00000000000000E+00   0.00000000000000E+00   0.00000000000000E+00
      0.00000000000000E+00   0.00000000000000E+00   9.41062772251441E-16   0.00000000000000E+00   0.00000000000000E+00