DF-ISE text

Info {
  version   = 1.0
  type      = xyplot
  datasets  = [
    "time"
    "gate OuterVoltage" "gate InnerVoltage" "gate QuasiFermiPotential" "gate DisplacementCurrent" "gate eCurrent"
    "gate hCurrent" "gate TotalCurrent" "gate Charge" "source OuterVoltage" "source InnerVoltage"
    "source QuasiFermiPotential" "source DisplacementCurrent" "source eCurrent" "source hCurrent" "source TotalCurrent"
    "source Charge" "drain OuterVoltage" "drain InnerVoltage" "drain QuasiFermiPotential" "drain DisplacementCurrent"
    "drain eCurrent" "drain hCurrent" "drain TotalCurrent" "drain Charge" ]
  functions = [
    Time
    OuterVoltage InnerVoltage QuasiFermiPotential DisplacementCurrent eCurrent
    hCurrent TotalCurrent Charge OuterVoltage InnerVoltage
    QuasiFermiPotential DisplacementCurrent eCurrent hCurrent TotalCurrent
    Charge OuterVoltage InnerVoltage QuasiFermiPotential DisplacementCurrent
    eCurrent hCurrent TotalCurrent Charge ]
}

Data {
      0.00000000000000E+00
      0.00000000000000E+00   0.00000000000000E+00   0.00000000000000E+00   0.00000000000000E+00   0.00000000000000E+00
      0.00000000000000E+00   0.00000000000000E+00  -5.56761742612311E-16   0.00000000000000E+00   0.00000000000000E+00
      0.00000000000000E+00   0.00000000000000E+00  -2.39538479101928E-08   7.69982734466973E-23  -2.39538479101927E-08
      1.20872291618936E-16   9.00000000000000E-01   9.00000000000000E-01   0.00000000000000E+00   0.00000000000000E+00
      2.39501606929742E-08  -9.29923566133617E-17   2.39501605999819E-08   4.37277229354671E-16
      1.66666666666667E-02
      1.66666666666667E-03   1.66666666666667E-03   0.00000000000000E+00   0.00000000000000E+00   0.00000000000000E+00
      0.00000000000000E+00   0.00000000000000E+00  -5.55577641503745E-16   0.00000000000000E+00   0.00000000000000E+00
      0.00000000000000E+00   0.00000000000000E+00  -2.53919969174459E-08  -7.99414930643351E-20  -2.53919969175259E-08
      1.20251443398787E-16   9.00000000000000E-01   9.00000000000000E-01   0.00000000000000E+00   0.00000000000000E+00
      2.54231698088790E-08   2.89663184472343E-18   2.54231698117756E-08   4.36718613038965E-16
      3.33333333333333E-02
      3.33333333333333E-03   3.33333333333333E-03   0.00000000000000E+00   0.00000000000000E+00   0.00000000000000E+00
      0.00000000000000E+00   0.00000000000000E+00  -5.54393194450729E-16   0.00000000000000E+00   0.00000000000000E+00
      0.00000000000000E+00   0.00000000000000E+00  -2.69161410116411E-08   3.73627059989750E-20  -2.69161410116037E-08
      1.19630403975013E-16   9.00000000000000E-01   9.00000000000000E-01   0.00000000000000E+00   0.00000000000000E+00
      2.69211477576220E-08  -9.43249051680463E-18   2.69211477481895E-08   4.36159921511283E-16
      5.00000000000000E-02
      5.00000000000000E-03   5.00000000000000E-03   0.00000000000000E+00   0.00000000000000E+00   0.00000000000000E+00
      0.00000000000000E+00   0.00000000000000E+00  -5.53208397086421E-16   0.00000000000000E+00   0.00000000000000E+00
      0.00000000000000E+00   0.00000000000000E+00  -2.85313957807010E-08   1.50606844791934E-20  -2.85313957806859E-08
      1.19009173427340E-16   9.00000000000000E-01   9.00000000000000E-01   0.00000000000000E+00   0.00000000000000E+00
      2.85007166709899E-08   1.87715401054551E-17   2.85007166897615E-08   4.35601154573737E-16
      6.66666666666667E-02
      6.66666666666667E-03   6.66666666666667E-03   0.00000000000000E+00   0.00000000000000E+00   0.00000000000000E+00
      0.00000000000000E+00   0.00000000000000E+00  -5.52023247911590E-16   0.00000000000000E+00   0.00000000000000E+00
      0.00000000000000E+00   0.00000000000000E+00  -3.02429557680826E-08   6.08858000760422E-18  -3.02429557619940E-08
      1.18387751732300E-16   9.00000000000000E-01   9.00000000000000E-01   0.00000000000000E+00   0.00000000000000E+00
      3.01683739416809E-08  -7.81749777733181E-17   3.01683738635059E-08   4.35042313442169E-16
      8.33333333333333E-02
      8.33333333333333E-03   8.33333333333333E-03   0.00000000000000E+00   0.00000000000000E+00   0.00000000000000E+00
      0.00000000000000E+00   0.00000000000000E+00  -5.50837741161870E-16   0.00000000000000E+00   0.00000000000000E+00
      0.00000000000000E+00   0.00000000000000E+00  -3.20570288049380E-08   3.11345835468800E-18  -3.20570288018245E-08
      1.17766138926603E-16   9.00000000000000E-01   9.00000000000000E-01   0.00000000000000E+00   0.00000000000000E+00
      3.19352385663787E-08  -3.40441298613003E-17   3.19352385323345E-08   4.34483395648689E-16
      1.00000000000000E-01
      1.00000000000000E-02   1.00000000000000E-02   0.00000000000000E+00   0.00000000000000E+00   0.00000000000000E+00
      0.00000000000000E+00   0.00000000000000E+00  -5.49651874260549E-16   0.00000000000000E+00   0.00000000000000E+00
      0.00000000000000E+00   0.00000000000000E+00  -3.39793907671972E-08   4.64367307295828E-18  -3.39793907625535E-08
      1.17144335088802E-16   9.00000000000000E-01   9.00000000000000E-01   0.00000000000000E+00   0.00000000000000E+00
      3.37997083496539E-08  -6.62570890909576E-17   3.37997082833968E-08   4.33924402321549E-16
      1.16666666666667E-01
      1.16666666666667E-02   1.16666666666667E-02   0.00000000000000E+00   0.00000000000000E+00   0.00000000000000E+00
      0.00000000000000E+00   0.00000000000000E+00  -5.48465643733727E-16   0.00000000000000E+00   0.00000000000000E+00
      0.00000000000000E+00   0.00000000000000E+00  -3.60165193276759E-08   3.83143350381506E-18  -3.60165193238445E-08
      1.16522340284808E-16   9.00000000000000E-01   9.00000000000000E-01   0.00000000000000E+00   0.00000000000000E+00
      3.57523848267570E-08  -4.68379869747913E-17   3.57523847799190E-08   4.33365333337922E-16
      1.33333333333333E-01
      1.33333333333333E-02   1.33333333333333E-02   0.00000000000000E+00   0.00000000000000E+00   0.00000000000000E+00
      0.00000000000000E+00   0.00000000000000E+00  -5.47279044666893E-16   0.00000000000000E+00   0.00000000000000E+00
      0.00000000000000E+00   0.00000000000000E+00  -3.81754186352966E-08  -2.41627644754094E-21  -3.81754186352990E-08
      1.15900154605831E-16   9.00000000000000E-01   9.00000000000000E-01   0.00000000000000E+00   0.00000000000000E+00
      3.78480444701458E-08   1.04109205055276E-17   3.78480444805567E-08   4.32806187377312E-16
      1.50000000000000E-01
      1.50000000000000E-02   1.50000000000000E-02   0.00000000000000E+00   0.00000000000000E+00   0.00000000000000E+00
      0.00000000000000E+00   0.00000000000000E+00  -5.46092075376121E-16   0.00000000000000E+00   0.00000000000000E+00
      0.00000000000000E+00   0.00000000000000E+00  -4.04629050849668E-08  -9.55099197984804E-22  -4.04629050849677E-08
      1.15277778157648E-16   9.00000000000000E-01   9.00000000000000E-01   0.00000000000000E+00   0.00000000000000E+00
      4.01311060190891E-08   1.28590124611970E-17   4.01311060319481E-08   4.32246966213386E-16
      1.66666666666667E-01
      1.66666666666667E-02   1.66666666666667E-02   0.00000000000000E+00   0.00000000000000E+00   0.00000000000000E+00
      0.00000000000000E+00   0.00000000000000E+00  -5.44904732533196E-16   0.00000000000000E+00   0.00000000000000E+00
      0.00000000000000E+00   0.00000000000000E+00  -4.28866027795190E-08   3.46451862321549E-18  -4.28866027760545E-08
      1.14655211067366E-16   9.00000000000000E-01   9.00000000000000E-01   0.00000000000000E+00   0.00000000000000E+00
      4.24719174197603E-08  -6.26783299604188E-17   4.24719173570820E-08   4.31687670019937E-16
      1.83333333333333E-01
      1.83333333333333E-02   1.83333333333333E-02   0.00000000000000E+00   0.00000000000000E+00   0.00000000000000E+00
      0.00000000000000E+00   0.00000000000000E+00  -5.43717008724827E-16   0.00000000000000E+00   0.00000000000000E+00
      0.00000000000000E+00   0.00000000000000E+00  -4.54551988543106E-08   8.65621322172786E-21  -4.54551988543020E-08
      1.14032453476239E-16   9.00000000000000E-01   9.00000000000000E-01   0.00000000000000E+00   0.00000000000000E+00
      4.47721902109168E-08   6.29676511966158E-18   4.47721902172136E-08   4.31128295183722E-16
      2.00000000000000E-01
      2.00000000000000E-02   2.00000000000000E-02   0.00000000000000E+00   0.00000000000000E+00   0.00000000000000E+00
      0.00000000000000E+00   0.00000000000000E+00  -5.42528902215908E-16   0.00000000000000E+00   0.00000000000000E+00
      0.00000000000000E+00   0.00000000000000E+00  -4.81766561671105E-08   1.25007696196470E-20  -4.81766561670980E-08
      1.13409505560400E-16   9.00000000000000E-01   9.00000000000000E-01   0.00000000000000E+00   0.00000000000000E+00
      4.77976537891756E-08   2.20437083216698E-19   4.77976537893960E-08   4.30568844033655E-16
      2.16666666666667E-01
      2.16666666666667E-02   2.16666666666667E-02   0.00000000000000E+00   0.00000000000000E+00   0.00000000000000E+00
      0.00000000000000E+00   0.00000000000000E+00  -5.41340411342827E-16   0.00000000000000E+00   0.00000000000000E+00
      0.00000000000000E+00   0.00000000000000E+00  -5.10600111992608E-08   3.18617294440931E-18  -5.10600111960746E-08
      1.12786367497044E-16   9.00000000000000E-01   9.00000000000000E-01   0.00000000000000E+00   0.00000000000000E+00
      5.11115722000073E-08  -5.39637533736096E-17   5.11115721460435E-08   4.30009318058849E-16
      2.33333333333333E-01
      2.33333333333333E-02   2.33333333333333E-02   0.00000000000000E+00   0.00000000000000E+00   0.00000000000000E+00
      0.00000000000000E+00   0.00000000000000E+00  -5.40151530506593E-16   0.00000000000000E+00   0.00000000000000E+00
      0.00000000000000E+00   0.00000000000000E+00  -5.41152737887061E-08   1.51726843790443E-18  -5.41152737871888E-08
      1.12163039480555E-16   9.00000000000000E-01   9.00000000000000E-01   0.00000000000000E+00   0.00000000000000E+00
      5.45731453689627E-08  -3.58511363657434E-17   5.45731453331116E-08   4.29449715189936E-16
      2.50000000000000E-01
      2.50000000000000E-02   2.50000000000000E-02   0.00000000000000E+00   0.00000000000000E+00   0.00000000000000E+00
      0.00000000000000E+00   0.00000000000000E+00  -5.38962256872682E-16   0.00000000000000E+00   0.00000000000000E+00
      0.00000000000000E+00   0.00000000000000E+00  -5.73525969817324E-08  -8.30931234770575E-21  -5.73525969817407E-08
      1.11539521749016E-16   9.00000000000000E-01   9.00000000000000E-01   0.00000000000000E+00   0.00000000000000E+00
      5.77380288464347E-08  -1.08227207796103E-18   5.77380288453524E-08   4.28890036285079E-16
      2.66666666666667E-01
      2.66666666666667E-02   2.66666666666667E-02   0.00000000000000E+00   0.00000000000000E+00   0.00000000000000E+00
      0.00000000000000E+00   0.00000000000000E+00  -5.37772589368933E-16   0.00000000000000E+00   0.00000000000000E+00
      0.00000000000000E+00   0.00000000000000E+00  -6.07820700556852E-08   1.85926583776416E-18  -6.07820700538259E-08
      1.10915814543505E-16   9.00000000000000E-01   9.00000000000000E-01   0.00000000000000E+00   0.00000000000000E+00
      6.10147497873672E-08  -5.40365471822426E-17   6.10147497333307E-08   4.28330284430846E-16
      2.83333333333333E-01
      2.83333333333333E-02   2.83333333333333E-02   0.00000000000000E+00   0.00000000000000E+00   0.00000000000000E+00
      0.00000000000000E+00   0.00000000000000E+00  -5.36582520129630E-16   0.00000000000000E+00   0.00000000000000E+00
      0.00000000000000E+00   0.00000000000000E+00  -6.44157358670185E-08   1.65035576764991E-18  -6.44157358653681E-08
      1.10291918150295E-16   9.00000000000000E-01   9.00000000000000E-01   0.00000000000000E+00   0.00000000000000E+00
      6.45433177793870E-08  -3.08874511177661E-17   6.45433177484995E-08   4.27770455772432E-16
      3.00000000000000E-01
      3.00000000000000E-02   3.00000000000000E-02   0.00000000000000E+00   0.00000000000000E+00   0.00000000000000E+00
      0.00000000000000E+00   0.00000000000000E+00  -5.35392046018958E-16   0.00000000000000E+00   0.00000000000000E+00
      0.00000000000000E+00   0.00000000000000E+00  -6.82654097496396E-08   1.92542580222223E-18  -6.82654097477142E-08
      1.09667832873196E-16   9.00000000000000E-01   9.00000000000000E-01   0.00000000000000E+00   0.00000000000000E+00
      6.84409933842927E-08  -4.26912528433615E-17   6.84409933416015E-08   4.27210551249511E-16
      3.16666666666667E-01
      3.16666666666667E-02   3.16666666666667E-02   0.00000000000000E+00   0.00000000000000E+00   0.00000000000000E+00
      0.00000000000000E+00   0.00000000000000E+00  -5.34201163086358E-16   0.00000000000000E+00   0.00000000000000E+00
      0.00000000000000E+00   0.00000000000000E+00  -7.23438384176549E-08   1.47260191310214E-18  -7.23438384161823E-08
      1.09043559038562E-16   9.00000000000000E-01   9.00000000000000E-01   0.00000000000000E+00   0.00000000000000E+00
      7.27199039034202E-08  -3.46636258631462E-17   7.27199038687566E-08   4.26650570964116E-16
      3.33333333333333E-01
      3.33333333333333E-02   3.33333333333333E-02   0.00000000000000E+00   0.00000000000000E+00   0.00000000000000E+00
      0.00000000000000E+00   0.00000000000000E+00  -5.33009867251470E-16   0.00000000000000E+00   0.00000000000000E+00
      0.00000000000000E+00   0.00000000000000E+00  -7.66645015776932E-08   1.52852942291999E-18  -7.66645015761646E-08
      1.08419097003260E-16   9.00000000000000E-01   9.00000000000000E-01   0.00000000000000E+00   0.00000000000000E+00
      7.72821167268904E-08  -3.61208748251492E-17   7.72821166907695E-08   4.26090515034166E-16
      3.50000000000000E-01
      3.50000000000000E-02   3.50000000000000E-02   0.00000000000000E+00   0.00000000000000E+00   0.00000000000000E+00
      0.00000000000000E+00   0.00000000000000E+00  -5.31818154405425E-16   0.00000000000000E+00   0.00000000000000E+00
      0.00000000000000E+00   0.00000000000000E+00  -8.12416728496764E-08   1.14298191133887E-18  -8.12416728485334E-08
      1.07794447150744E-16   9.00000000000000E-01   9.00000000000000E-01   0.00000000000000E+00   0.00000000000000E+00
      8.19924167307136E-08  -3.29631014875421E-17   8.19924166977505E-08   4.25530383621632E-16
      3.66666666666667E-01
      3.66666666666667E-02   3.66666666666667E-02   0.00000000000000E+00   0.00000000000000E+00   0.00000000000000E+00
      0.00000000000000E+00   0.00000000000000E+00  -5.30626019244941E-16   0.00000000000000E+00   0.00000000000000E+00
      0.00000000000000E+00   0.00000000000000E+00  -8.60906960147604E-08  -1.28639564464461E-20  -8.60906960147733E-08
      1.07169609900655E-16   9.00000000000000E-01   9.00000000000000E-01   0.00000000000000E+00   0.00000000000000E+00
      8.65593039089385E-08   4.36257824652002E-18   8.65593039133011E-08   4.24970175788358E-16
      3.83333333333333E-01
      3.83333333333333E-02   3.83333333333333E-02   0.00000000000000E+00   0.00000000000000E+00   0.00000000000000E+00
      0.00000000000000E+00   0.00000000000000E+00  -5.29433460378639E-16   0.00000000000000E+00   0.00000000000000E+00
      0.00000000000000E+00   0.00000000000000E+00  -9.12268331091591E-08   8.87848759454917E-19  -9.12268331082712E-08
      1.06544585688005E-16   9.00000000000000E-01   9.00000000000000E-01   0.00000000000000E+00   0.00000000000000E+00
      9.13187561107763E-08  -3.96101433150349E-17   9.13187560711662E-08   4.24409894921558E-16
      4.00000000000000E-01
      4.00000000000000E-02   4.00000000000000E-02   0.00000000000000E+00   0.00000000000000E+00   0.00000000000000E+00
      0.00000000000000E+00   0.00000000000000E+00  -5.28240469098164E-16   0.00000000000000E+00   0.00000000000000E+00
      0.00000000000000E+00   0.00000000000000E+00  -9.66677241308761E-08   1.14344196295700E-18  -9.66677241297326E-08
      1.05919375005440E-16   9.00000000000000E-01   9.00000000000000E-01   0.00000000000000E+00   0.00000000000000E+00
      9.65030016472562E-08  -2.19864984612741E-17   9.65030016252697E-08   4.23849537106474E-16
      4.16666666666667E-01
      4.16666666666667E-02   4.16666666666667E-02   0.00000000000000E+00   0.00000000000000E+00   0.00000000000000E+00
      0.00000000000000E+00   0.00000000000000E+00  -5.27047041404861E-16   0.00000000000000E+00   0.00000000000000E+00
      0.00000000000000E+00   0.00000000000000E+00  -1.02431023355034E-07   1.01291055524819E-18  -1.02431023354021E-07
      1.05293978362732E-16   9.00000000000000E-01   9.00000000000000E-01   0.00000000000000E+00   0.00000000000000E+00
      1.02296569309805E-07  -2.99545801732547E-17   1.02296569279850E-07   4.23289103121406E-16
      4.33333333333333E-01
      4.33333333333333E-02   4.33333333333333E-02   0.00000000000000E+00   0.00000000000000E+00   0.00000000000000E+00
      0.00000000000000E+00   0.00000000000000E+00  -5.25853172671254E-16   0.00000000000000E+00   0.00000000000000E+00
      0.00000000000000E+00   0.00000000000000E+00  -1.08535673610668E-07   8.25265715877362E-19  -1.08535673609842E-07
      1.04668396305864E-16   9.00000000000000E-01   9.00000000000000E-01   0.00000000000000E+00   0.00000000000000E+00
      1.08705553202339E-07  -2.48726378842323E-17   1.08705553177466E-07   4.22728593182600E-16
      4.50000000000000E-01
      4.50000000000000E-02   4.50000000000000E-02   0.00000000000000E+00   0.00000000000000E+00   0.00000000000000E+00
      0.00000000000000E+00   0.00000000000000E+00  -5.24658858220070E-16   0.00000000000000E+00   0.00000000000000E+00
      0.00000000000000E+00   0.00000000000000E+00  -1.15001703956887E-07   7.20574391676689E-19  -1.15001703956166E-07
      1.04042629417816E-16   9.00000000000000E-01   9.00000000000000E-01   0.00000000000000E+00   0.00000000000000E+00
      1.15556162845493E-07  -2.55272995032955E-17   1.15556162819965E-07   4.22168007584080E-16
      4.66666666666667E-01
      4.66666666666667E-02   4.66666666666667E-02   0.00000000000000E+00   0.00000000000000E+00   0.00000000000000E+00
      0.00000000000000E+00   0.00000000000000E+00  -5.23464092948347E-16   0.00000000000000E+00   0.00000000000000E+00
      0.00000000000000E+00   0.00000000000000E+00  -1.21850297952134E-07   6.89114134870295E-19  -1.21850297951445E-07
      1.03416678319835E-16   9.00000000000000E-01   9.00000000000000E-01   0.00000000000000E+00   0.00000000000000E+00
      1.22626452198193E-07  -2.37259915589706E-17   1.22626452174467E-07   4.21607346390692E-16
      4.83333333333333E-01
      4.83333333333333E-02   4.83333333333333E-02   0.00000000000000E+00   0.00000000000000E+00   0.00000000000000E+00
      0.00000000000000E+00   0.00000000000000E+00  -5.22268871824261E-16   0.00000000000000E+00   0.00000000000000E+00
      0.00000000000000E+00   0.00000000000000E+00  -1.29103884537907E-07   6.24530794163325E-19  -1.29103884537283E-07
      1.02790543671726E-16   9.00000000000000E-01   9.00000000000000E-01   0.00000000000000E+00   0.00000000000000E+00
      1.29759117115269E-07  -2.30578850800684E-17   1.29759117092211E-07   4.21046609956828E-16
      5.00000000000000E-01
      5.00000000000000E-02   5.00000000000000E-02   0.00000000000000E+00   0.00000000000000E+00   0.00000000000000E+00
      0.00000000000000E+00   0.00000000000000E+00  -5.21073189130804E-16   0.00000000000000E+00   0.00000000000000E+00
      0.00000000000000E+00   0.00000000000000E+00  -1.36786178133992E-07   5.51867505832797E-19  -1.36786178133440E-07
      1.02164226175112E-16   9.00000000000000E-01   9.00000000000000E-01   0.00000000000000E+00   0.00000000000000E+00
      1.37091814355782E-07  -2.20145540042228E-17   1.37091814333768E-07   4.20485798190831E-16
      5.16666666666667E-01
      5.16666666666667E-02   5.16666666666667E-02   0.00000000000000E+00   0.00000000000000E+00   0.00000000000000E+00
      0.00000000000000E+00   0.00000000000000E+00  -5.19877038763020E-16   0.00000000000000E+00   0.00000000000000E+00
      0.00000000000000E+00   0.00000000000000E+00  -1.44922273392538E-07   5.73920891665410E-19  -1.44922273391965E-07
      1.01537726574951E-16   9.00000000000000E-01   9.00000000000000E-01   0.00000000000000E+00   0.00000000000000E+00
      1.44993636733690E-07  -2.12243214238863E-17   1.44993636712465E-07   4.19924910816819E-16
      5.33333333333333E-01
      5.33333333333333E-02   5.33333333333333E-02   0.00000000000000E+00   0.00000000000000E+00   0.00000000000000E+00
      0.00000000000000E+00   0.00000000000000E+00  -5.18680414595746E-16   0.00000000000000E+00   0.00000000000000E+00
      0.00000000000000E+00   0.00000000000000E+00  -1.53538688334672E-07   5.25780436101199E-19  -1.53538688334146E-07
      1.00911045661662E-16   9.00000000000000E-01   9.00000000000000E-01   0.00000000000000E+00   0.00000000000000E+00
      1.53589493308354E-07  -2.04287259972389E-17   1.53589493287925E-07   4.19363947596301E-16
      5.50000000000000E-01
      5.50000000000000E-02   5.50000000000000E-02   0.00000000000000E+00   0.00000000000000E+00   0.00000000000000E+00
      0.00000000000000E+00   0.00000000000000E+00  -5.17483310644179E-16   0.00000000000000E+00   0.00000000000000E+00
      0.00000000000000E+00   0.00000000000000E+00  -1.62663499547247E-07   4.51075853141824E-19  -1.62663499546796E-07
      1.00284184265372E-16   9.00000000000000E-01   9.00000000000000E-01   0.00000000000000E+00   0.00000000000000E+00
      1.62815670715414E-07  -1.96606109406429E-17   1.62815670695753E-07   4.18802908558147E-16
      5.66666666666667E-01
      5.66666666666667E-02   5.66666666666667E-02   0.00000000000000E+00   0.00000000000000E+00   0.00000000000000E+00
      0.00000000000000E+00   0.00000000000000E+00  -5.16285721067857E-16   0.00000000000000E+00   0.00000000000000E+00
      0.00000000000000E+00   0.00000000000000E+00  -1.72326376309116E-07   4.26552130920342E-19  -1.72326376308690E-07
      9.96571432644698E-17   9.00000000000000E-01   9.00000000000000E-01   0.00000000000000E+00   0.00000000000000E+00
      1.72575872889213E-07  -1.88883262378441E-17   1.72575872870324E-07   4.18241794086395E-16
      5.83333333333333E-01
      5.83333333333333E-02   5.83333333333333E-02   0.00000000000000E+00   0.00000000000000E+00   0.00000000000000E+00
      0.00000000000000E+00   0.00000000000000E+00  -5.15087639416680E-16   0.00000000000000E+00   0.00000000000000E+00
      0.00000000000000E+00   0.00000000000000E+00  -1.82558700053984E-07   3.76312420100282E-19  -1.82558700053607E-07
      9.90299235908484E-17   9.00000000000000E-01   9.00000000000000E-01   0.00000000000000E+00   0.00000000000000E+00
      1.82826242884556E-07  -1.81258796194609E-17   1.82826242866430E-07   4.17680604197631E-16
      6.00000000000000E-01
      6.00000000000000E-02   6.00000000000000E-02   0.00000000000000E+00   0.00000000000000E+00   0.00000000000000E+00
      0.00000000000000E+00   0.00000000000000E+00  -5.13889058882443E-16   0.00000000000000E+00   0.00000000000000E+00
      0.00000000000000E+00   0.00000000000000E+00  -1.93393659898409E-07   3.60127445943493E-19  -1.93393659898048E-07
      9.84025262213344E-17   9.00000000000000E-01   9.00000000000000E-01   0.00000000000000E+00   0.00000000000000E+00
      1.93606874219486E-07  -1.73775453719410E-17   1.93606874202108E-07   4.17119338828682E-16
      6.16666666666667E-01
      6.16666666666667E-02   6.16666666666667E-02   0.00000000000000E+00   0.00000000000000E+00   0.00000000000000E+00
      0.00000000000000E+00   0.00000000000000E+00  -5.12689972638166E-16   0.00000000000000E+00   0.00000000000000E+00
      0.00000000000000E+00   0.00000000000000E+00  -2.04866331767663E-07   3.56377093384509E-19  -2.04866331767307E-07
      9.77749521875767E-17   9.00000000000000E-01   9.00000000000000E-01   0.00000000000000E+00   0.00000000000000E+00
      2.05006467171084E-07  -1.66250072102249E-17   2.05006467154459E-07   4.16557998138089E-16
      6.33333333333334E-01
      6.33333333333334E-02   6.33333333333334E-02   0.00000000000000E+00   0.00000000000000E+00   0.00000000000000E+00
      0.00000000000000E+00   0.00000000000000E+00  -5.11490373367405E-16   0.00000000000000E+00   0.00000000000000E+00
      0.00000000000000E+00   0.00000000000000E+00  -2.17013811648639E-07   3.26230534984929E-19  -2.17013811648313E-07
      9.71472025771148E-17   9.00000000000000E-01   9.00000000000000E-01   0.00000000000000E+00   0.00000000000000E+00
      2.17105705807907E-07  -1.58349613413924E-17   2.17105705792072E-07   4.15996582017340E-16
      6.50000000000000E-01
      6.50000000000000E-02   6.50000000000000E-02   0.00000000000000E+00   0.00000000000000E+00   0.00000000000000E+00
      0.00000000000000E+00   0.00000000000000E+00  -5.10290253632150E-16   0.00000000000000E+00   0.00000000000000E+00
      0.00000000000000E+00   0.00000000000000E+00  -2.29875309397378E-07   3.04169364383815E-19  -2.29875309397074E-07
      9.65192785343776E-17   9.00000000000000E-01   9.00000000000000E-01   0.00000000000000E+00   0.00000000000000E+00
      2.29951789989362E-07  -1.50014927295582E-17   2.29951789974361E-07   4.15435090466440E-16
      6.66666666666667E-01
      6.66666666666667E-02   6.66666666666667E-02   0.00000000000000E+00   0.00000000000000E+00   0.00000000000000E+00
      0.00000000000000E+00   0.00000000000000E+00  -5.09089605750997E-16   0.00000000000000E+00   0.00000000000000E+00
      0.00000000000000E+00   0.00000000000000E+00  -2.43492276873714E-07   2.88986582797080E-19  -2.43492276873425E-07
      9.58911812587353E-17   9.00000000000000E-01   9.00000000000000E-01   0.00000000000000E+00   0.00000000000000E+00
      2.43565935786949E-07  -1.41427579333671E-17   2.43565935772807E-07   4.14873523502993E-16
      6.83333333333334E-01
      6.83333333333334E-02   6.83333333333334E-02   0.00000000000000E+00   0.00000000000000E+00   0.00000000000000E+00
      0.00000000000000E+00   0.00000000000000E+00  -5.07888421742471E-16   0.00000000000000E+00   0.00000000000000E+00
      0.00000000000000E+00   0.00000000000000E+00  -2.57908521996964E-07   2.73703489955563E-19  -2.57908521996690E-07
      9.52629120126102E-17   9.00000000000000E-01   9.00000000000000E-01   0.00000000000000E+00   0.00000000000000E+00
      2.57968479273962E-07  -1.32940273717841E-17   2.57968479260668E-07   4.14311881124735E-16
      7.00000000000001E-01
      7.00000000000000E-02   7.00000000000000E-02   0.00000000000000E+00   0.00000000000000E+00   0.00000000000000E+00
      0.00000000000000E+00   0.00000000000000E+00  -5.06686693279627E-16   0.00000000000000E+00   0.00000000000000E+00
      0.00000000000000E+00   0.00000000000000E+00  -2.73170346062568E-07   2.64859183961156E-19  -2.73170346062303E-07
      9.46344721239141E-17   9.00000000000000E-01   9.00000000000000E-01   0.00000000000000E+00   0.00000000000000E+00
      2.73189475265583E-07  -1.24778164371249E-17   2.73189475253105E-07   4.13750163282567E-16
      7.16666666666667E-01
      7.16666666666667E-02   7.16666666666667E-02   0.00000000000000E+00   0.00000000000000E+00   0.00000000000000E+00
      0.00000000000000E+00   0.00000000000000E+00  -5.05484411539398E-16   0.00000000000000E+00   0.00000000000000E+00
      0.00000000000000E+00   0.00000000000000E+00  -2.89326722321126E-07   2.54150229190006E-19  -2.89326722320872E-07
      9.40058629790247E-17   9.00000000000000E-01   9.00000000000000E-01   0.00000000000000E+00   0.00000000000000E+00
      2.89270076343040E-07  -1.17078078814787E-17   2.89270076331332E-07   4.13188369763532E-16
      7.33333333333334E-01
      7.33333333333334E-02   7.33333333333334E-02   0.00000000000000E+00   0.00000000000000E+00   0.00000000000000E+00
      0.00000000000000E+00   0.00000000000000E+00  -5.04281567562815E-16   0.00000000000000E+00   0.00000000000000E+00
      0.00000000000000E+00   0.00000000000000E+00  -3.06429245342243E-07   2.59504130452505E-19  -3.06429245341983E-07
      9.33770860394168E-17   9.00000000000000E-01   9.00000000000000E-01   0.00000000000000E+00   0.00000000000000E+00
      3.06266434409904E-07  -1.08551781798531E-17   3.06266434399048E-07   4.12626500578688E-16
      7.50000000000001E-01
      7.50000000000001E-02   7.50000000000001E-02   0.00000000000000E+00   0.00000000000000E+00   0.00000000000000E+00
      0.00000000000000E+00   0.00000000000000E+00  -5.03078151660043E-16   0.00000000000000E+00   0.00000000000000E+00
      0.00000000000000E+00   0.00000000000000E+00  -3.24532655064561E-07   2.56054869576045E-19  -3.24532655064305E-07
      9.27481428331962E-17   9.00000000000000E-01   9.00000000000000E-01   0.00000000000000E+00   0.00000000000000E+00
      3.24226094065407E-07  -1.00973566300981E-17   3.24226094055309E-07   4.12064555304046E-16
      7.66666666666667E-01
      7.66666666666667E-02   7.66666666666667E-02   0.00000000000000E+00   0.00000000000000E+00   0.00000000000000E+00
      0.00000000000000E+00   0.00000000000000E+00  -5.01874153555769E-16   0.00000000000000E+00   0.00000000000000E+00
      0.00000000000000E+00   0.00000000000000E+00  -3.43694627220756E-07   2.61675296445888E-19  -3.43694627220495E-07
      9.21190349630652E-17   9.00000000000000E-01   9.00000000000000E-01   0.00000000000000E+00   0.00000000000000E+00
      3.43183195019292E-07  -9.45221787884441E-18   3.43183195009840E-07   4.11502533328723E-16
      7.83333333333334E-01
      7.83333333333334E-02   7.83333333333334E-02   0.00000000000000E+00   0.00000000000000E+00   0.00000000000000E+00
      0.00000000000000E+00   0.00000000000000E+00  -5.00669562681813E-16   0.00000000000000E+00   0.00000000000000E+00
      0.00000000000000E+00   0.00000000000000E+00  -3.63976137368464E-07   2.75458249067254E-19  -3.63976137368189E-07
      9.14897641067417E-17   9.00000000000000E-01   9.00000000000000E-01   0.00000000000000E+00   0.00000000000000E+00
      3.63161850737045E-07  -8.89157725035129E-18   3.63161850728153E-07   4.10940434149173E-16
      8.00000000000001E-01
      8.00000000000001E-02   8.00000000000001E-02   0.00000000000000E+00   0.00000000000000E+00   0.00000000000000E+00
      0.00000000000000E+00   0.00000000000000E+00  -4.99464367441128E-16   0.00000000000000E+00   0.00000000000000E+00