DF-ISE text

Info {
  version   = 1.0
  type      = xyplot
  datasets  = [
    "time"
    "gate OuterVoltage" "gate InnerVoltage" "gate QuasiFermiPotential" "gate DisplacementCurrent" "gate eCurrent"
    "gate hCurrent" "gate TotalCurrent" "gate Charge" "source OuterVoltage" "source InnerVoltage"
    "source QuasiFermiPotential" "source DisplacementCurrent" "source eCurrent" "source hCurrent" "source TotalCurrent"
    "source Charge" "drain OuterVoltage" "drain InnerVoltage" "drain QuasiFermiPotential" "drain DisplacementCurrent"
    "drain eCurrent" "drain hCurrent" "drain TotalCurrent" "drain Charge" ]
  functions = [
    Time
    OuterVoltage InnerVoltage QuasiFermiPotential DisplacementCurrent eCurrent
    hCurrent TotalCurrent Charge OuterVoltage InnerVoltage
    QuasiFermiPotential DisplacementCurrent eCurrent hCurrent TotalCurrent
    Charge OuterVoltage InnerVoltage QuasiFermiPotential DisplacementCurrent
    eCurrent hCurrent TotalCurrent Charge ]
}

Data {
      0.00000000000000E+00
      0.00000000000000E+00   0.00000000000000E+00   0.00000000000000E+00   0.00000000000000E+00   0.00000000000000E+00
      0.00000000000000E+00   0.00000000000000E+00   4.85884622398086E-16   0.00000000000000E+00   0.00000000000000E+00
      0.00000000000000E+00   0.00000000000000E+00   3.41704759151074E-08   2.27506946851508E-17   3.41704759378581E-08
     -1.10422351328861E-16  -7.00000000000000E-01  -7.00000000000000E-01   0.00000000000000E+00   0.00000000000000E+00
     -3.41704759508695E-08   1.30204941812494E-17  -3.41704759378491E-08  -3.76647327376315E-16
      1.66666666666667E-02
     -1.16666666666667E-02  -1.16666666666667E-02   0.00000000000000E+00   0.00000000000000E+00   0.00000000000000E+00
      0.00000000000000E+00   0.00000000000000E+00   4.76927101904547E-16   0.00000000000000E+00   0.00000000000000E+00
      0.00000000000000E+00   0.00000000000000E+00   5.18790381236275E-08  -2.10833441794204E-13   5.18788272901857E-08
     -1.05760166449672E-16  -7.00000000000000E-01  -7.00000000000000E-01   0.00000000000000E+00   0.00000000000000E+00
     -5.18790420021001E-08  -2.72931532675822E-15  -5.18790447314154E-08  -3.72371039960648E-16
      3.33333333333333E-02
     -2.33333333333333E-02  -2.33333333333333E-02   0.00000000000000E+00   0.00000000000000E+00   0.00000000000000E+00
      0.00000000000000E+00   0.00000000000000E+00   4.67940899562399E-16   0.00000000000000E+00   0.00000000000000E+00
      0.00000000000000E+00   0.00000000000000E+00   7.87015486992434E-08   1.15608542003095E-17   7.87015487108042E-08
     -1.01081025089206E-16  -7.00000000000000E-01  -7.00000000000000E-01   0.00000000000000E+00   0.00000000000000E+00
     -7.87015487085195E-08  -2.33653622581549E-18  -7.87015487108561E-08  -3.68089260868033E-16
      5.00000000000000E-02
     -3.50000000000000E-02  -3.50000000000000E-02   0.00000000000000E+00   0.00000000000000E+00   0.00000000000000E+00
      0.00000000000000E+00   0.00000000000000E+00   4.58923376916446E-16   0.00000000000000E+00   0.00000000000000E+00
      0.00000000000000E+00   0.00000000000000E+00   1.19281874279068E-07   1.15975794670905E-15   1.19281875438826E-07
     -9.63843636940989E-17  -7.00000000000000E-01  -7.00000000000000E-01   0.00000000000000E+00   0.00000000000000E+00
     -1.19281881506268E-07   4.20050287946345E-15  -1.19281877305765E-07  -3.63802027411697E-16
      6.66666666666667E-02
     -4.66666666666667E-02  -4.66666666666667E-02   0.00000000000000E+00   0.00000000000000E+00   0.00000000000000E+00
      0.00000000000000E+00   0.00000000000000E+00   4.49871360344325E-16   0.00000000000000E+00   0.00000000000000E+00
      0.00000000000000E+00   0.00000000000000E+00   1.80593833394139E-07   4.35404597560484E-16   1.80593833829544E-07
     -9.16698249522912E-17  -7.00000000000000E-01  -7.00000000000000E-01   0.00000000000000E+00   0.00000000000000E+00
     -1.80593836108883E-07   9.82813703376058E-16  -1.80593835126069E-07  -3.59509376204401E-16
      8.33333333333333E-02
     -5.83333333333333E-02  -5.83333333333333E-02   0.00000000000000E+00   0.00000000000000E+00   0.00000000000000E+00
      0.00000000000000E+00   0.00000000000000E+00   4.40780941063769E-16   0.00000000000000E+00   0.00000000000000E+00
      0.00000000000000E+00   0.00000000000000E+00   2.73079971140996E-07  -1.35497669344541E-15   2.73079969786019E-07
     -8.69373259634998E-17  -7.00000000000000E-01  -7.00000000000000E-01   0.00000000000000E+00   0.00000000000000E+00
     -2.73079975581406E-07   4.72818442460501E-15  -2.73079970853221E-07  -3.55211342544258E-16
      1.00000000000000E-01
     -7.00000000000000E-02  -7.00000000000000E-02   0.00000000000000E+00   0.00000000000000E+00   0.00000000000000E+00
      0.00000000000000E+00   0.00000000000000E+00   4.31647191715803E-16   0.00000000000000E+00   0.00000000000000E+00
      0.00000000000000E+00   0.00000000000000E+00   4.12320376836916E-07  -5.17581687327715E-17   4.12320376785158E-07
     -8.21871380193900E-17  -7.00000000000000E-01  -7.00000000000000E-01   0.00000000000000E+00   0.00000000000000E+00
     -4.12320374507970E-07  -3.32229278195476E-15  -4.12320377830263E-07  -3.50907959417432E-16
      1.16666666666667E-01
     -8.16666666666667E-02  -8.16666666666667E-02   0.00000000000000E+00   0.00000000000000E+00   0.00000000000000E+00
      0.00000000000000E+00   0.00000000000000E+00   4.22463771350645E-16   0.00000000000000E+00   0.00000000000000E+00
      0.00000000000000E+00   0.00000000000000E+00   6.21453237468550E-07  -1.70597342883885E-15   6.21453235762577E-07
     -7.74199791375832E-17  -7.00000000000000E-01  -7.00000000000000E-01   0.00000000000000E+00   0.00000000000000E+00
     -6.21453240057606E-07   3.46884735971142E-15  -6.21453236588759E-07  -3.46599255902252E-16
      1.33333333333333E-01
     -9.33333333333333E-02  -9.33333333333333E-02   0.00000000000000E+00   0.00000000000000E+00   0.00000000000000E+00
      0.00000000000000E+00   0.00000000000000E+00   4.13222385696690E-16   0.00000000000000E+00   0.00000000000000E+00
      0.00000000000000E+00   0.00000000000000E+00   9.34637775746381E-07   8.95276378281663E-16   9.34637776641658E-07
     -7.26371195488976E-17  -7.00000000000000E-01  -7.00000000000000E-01   0.00000000000000E+00   0.00000000000000E+00
     -9.34637779389814E-07   2.19193566264301E-15  -9.34637777197878E-07  -3.42285254458043E-16
      1.50000000000000E-01
     -1.05000000000000E-01  -1.05000000000000E-01   0.00000000000000E+00   0.00000000000000E+00   0.00000000000000E+00
      0.00000000000000E+00   0.00000000000000E+00   4.03912068304590E-16   0.00000000000000E+00   0.00000000000000E+00
      0.00000000000000E+00   0.00000000000000E+00   1.40191715656099E-06  -1.19399057157568E-15   1.40191715536700E-06
     -6.78404982943189E-17  -7.00000000000000E-01  -7.00000000000000E-01   0.00000000000000E+00   0.00000000000000E+00
     -1.40191715646195E-06   3.04608252245752E-17  -1.40191715643149E-06  -3.37965966221579E-16
      1.66666666666667E-01
     -1.16666666666667E-01  -1.16666666666667E-01   0.00000000000000E+00   0.00000000000000E+00   0.00000000000000E+00
      0.00000000000000E+00   0.00000000000000E+00   3.94518255533468E-16   0.00000000000000E+00   0.00000000000000E+00
      0.00000000000000E+00   0.00000000000000E+00   2.09587674164319E-06  -5.20805173057737E-15   2.09587673643514E-06
     -6.30328452805942E-17  -7.00000000000000E-01  -7.00000000000000E-01   0.00000000000000E+00   0.00000000000000E+00
     -2.09587674113163E-06  -1.40161426376839E-16  -2.09587674127179E-06  -3.33641383081988E-16
      1.83333333333333E-01
     -1.28333333333333E-01  -1.28333333333333E-01   0.00000000000000E+00   0.00000000000000E+00   0.00000000000000E+00
      0.00000000000000E+00   0.00000000000000E+00   3.85021652010903E-16   0.00000000000000E+00   0.00000000000000E+00
      0.00000000000000E+00   0.00000000000000E+00   3.12045482700863E-06  -1.92215488550995E-14   3.12045480778708E-06
     -5.82177968403735E-17  -7.00000000000000E-01  -7.00000000000000E-01   0.00000000000000E+00   0.00000000000000E+00
     -3.12045482678460E-06   7.25218119196082E-16  -3.12045482605938E-06  -3.29311465211441E-16
      2.00000000000000E-01
     -1.40000000000000E-01  -1.40000000000000E-01   0.00000000000000E+00   0.00000000000000E+00   0.00000000000000E+00
      0.00000000000000E+00   0.00000000000000E+00   3.75396931039058E-16   0.00000000000000E+00   0.00000000000000E+00
      0.00000000000000E+00   0.00000000000000E+00   4.62208608317160E-06  -5.63493422645621E-14   4.62208602682226E-06
     -5.33999842423972E-17  -7.00000000000000E-01  -7.00000000000000E-01   0.00000000000000E+00   0.00000000000000E+00
     -4.62208608309364E-06   4.29043827314705E-16  -4.62208608266459E-06  -3.24976122516442E-16
      2.16666666666667E-01
     -1.51666666666667E-01  -1.51666666666667E-01   0.00000000000000E+00   0.00000000000000E+00   0.00000000000000E+00
      0.00000000000000E+00   0.00000000000000E+00   3.65611386372914E-16   0.00000000000000E+00   0.00000000000000E+00
      0.00000000000000E+00   0.00000000000000E+00   6.80301816917633E-06  -1.46908884125866E-13   6.80301802226745E-06
     -4.85850654576303E-17  -7.00000000000000E-01  -7.00000000000000E-01   0.00000000000000E+00   0.00000000000000E+00
     -6.80301816963576E-06   5.15063907694893E-16  -6.80301816912069E-06  -3.20635188119597E-16
      2.33333333333333E-01
     -1.63333333333333E-01  -1.63333333333333E-01   0.00000000000000E+00   0.00000000000000E+00   0.00000000000000E+00
      0.00000000000000E+00   0.00000000000000E+00   3.55623717973934E-16   0.00000000000000E+00   0.00000000000000E+00
      0.00000000000000E+00   0.00000000000000E+00   9.93631591423563E-06  -3.43964646470327E-13   9.93631557027098E-06
     -4.37796665424624E-17  -7.00000000000000E-01  -7.00000000000000E-01   0.00000000000000E+00   0.00000000000000E+00
     -9.93631591250844E-06  -1.85886452922599E-16  -9.93631591269433E-06  -3.16288381442301E-16
      2.50000000000000E-01
     -1.75000000000000E-01  -1.75000000000000E-01   0.00000000000000E+00   0.00000000000000E+00   0.00000000000000E+00
      0.00000000000000E+00   0.00000000000000E+00   3.45383087046654E-16   0.00000000000000E+00   0.00000000000000E+00
      0.00000000000000E+00   0.00000000000000E+00   1.43825668961393E-05  -7.15281892483489E-13   1.43825661808574E-05
     -3.89912119047361E-17  -7.00000000000000E-01  -7.00000000000000E-01   0.00000000000000E+00   0.00000000000000E+00
     -1.43825668957778E-05  -6.61614330988787E-16  -1.43825668964394E-05  -3.11935256999571E-16
      2.66666666666667E-01
     -1.86666666666667E-01  -1.86666666666667E-01   0.00000000000000E+00   0.00000000000000E+00   0.00000000000000E+00
      0.00000000000000E+00   0.00000000000000E+00   3.34828109385758E-16   0.00000000000000E+00   0.00000000000000E+00
      0.00000000000000E+00   0.00000000000000E+00   2.06123227507717E-05  -1.34368208749137E-12   2.06123214070896E-05
     -3.42276735369237E-17  -7.00000000000000E-01  -7.00000000000000E-01   0.00000000000000E+00   0.00000000000000E+00
     -2.06123227492225E-05  -2.38577815372136E-15  -2.06123227516083E-05  -3.07575128477225E-16
      2.83333333333333E-01
     -1.98333333333333E-01  -1.98333333333333E-01   0.00000000000000E+00   0.00000000000000E+00   0.00000000000000E+00
      0.00000000000000E+00   0.00000000000000E+00   3.23883503719907E-16   0.00000000000000E+00   0.00000000000000E+00
      0.00000000000000E+00   0.00000000000000E+00   2.92562437743298E-05  -2.28549135253229E-12   2.92562414888384E-05
     -2.94974098740517E-17  -7.00000000000000E-01  -7.00000000000000E-01   0.00000000000000E+00   0.00000000000000E+00
     -2.92562437747540E-05   7.18368080599689E-16  -2.92562437740356E-05  -3.03206927730501E-16
      3.00000000000000E-01
     -2.10000000000000E-01  -2.10000000000000E-01   0.00000000000000E+00   0.00000000000000E+00   0.00000000000000E+00
      0.00000000000000E+00   0.00000000000000E+00   3.12440980043291E-16   0.00000000000000E+00   0.00000000000000E+00
      0.00000000000000E+00   0.00000000000000E+00   4.13128842006264E-05  -3.43998783012138E-12   4.13128807606386E-05
     -2.48098344277463E-17  -7.00000000000000E-01  -7.00000000000000E-01   0.00000000000000E+00   0.00000000000000E+00
     -4.13128842009269E-05  -2.22178180710397E-15  -4.13128842031486E-05  -2.98828772474636E-16
      3.16666666666667E-01
     -2.21666666666667E-01  -2.21666666666667E-01   0.00000000000000E+00   0.00000000000000E+00   0.00000000000000E+00
      0.00000000000000E+00   0.00000000000000E+00   3.00609580210992E-16   0.00000000000000E+00   0.00000000000000E+00
      0.00000000000000E+00   0.00000000000000E+00   5.56958163785178E-05  -7.21797509363107E-11   5.56957441987668E-05
     -2.01687438781111E-17  -7.00000000000000E-01  -7.00000000000000E-01   0.00000000000000E+00   0.00000000000000E+00
     -5.56958164058174E-05  -5.49845056559076E-13  -5.56958169556624E-05  -2.94441618520745E-16
      3.33333333333333E-01
     -2.33333333333333E-01  -2.33333333333333E-01   0.00000000000000E+00   0.00000000000000E+00   0.00000000000000E+00
      0.00000000000000E+00   0.00000000000000E+00   2.88663873401710E-16   0.00000000000000E+00   0.00000000000000E+00
      0.00000000000000E+00   0.00000000000000E+00   7.03353365067856E-05   1.62028976069953E-12   7.03353381270753E-05
     -1.55404844942212E-17  -7.00000000000000E-01  -7.00000000000000E-01   0.00000000000000E+00   0.00000000000000E+00
     -7.03353365250719E-05  -4.45286583268362E-13  -7.03353369703585E-05  -2.90048453802026E-16
      3.50000000000000E-01
     -2.45000000000000E-01  -2.45000000000000E-01   0.00000000000000E+00   0.00000000000000E+00   0.00000000000000E+00
      0.00000000000000E+00   0.00000000000000E+00   2.76329778996493E-16   0.00000000000000E+00   0.00000000000000E+00
      0.00000000000000E+00   0.00000000000000E+00   8.73061368172847E-05  -1.61596024830072E-12   8.73061352013245E-05
     -1.09503888891598E-17  -7.00000000000000E-01  -7.00000000000000E-01   0.00000000000000E+00   0.00000000000000E+00
     -8.73061368126021E-05  -3.49384761712942E-15  -8.73061368160960E-05  -2.85646084876678E-16
      3.66666666666667E-01
     -2.56666666666667E-01  -2.56666666666667E-01   0.00000000000000E+00   0.00000000000000E+00   0.00000000000000E+00
      0.00000000000000E+00   0.00000000000000E+00   2.63580046827706E-16   0.00000000000000E+00   0.00000000000000E+00
      0.00000000000000E+00   0.00000000000000E+00   1.06691997778007E-04  -3.30359070741372E-12   1.06691994474416E-04
     -6.40525305545083E-18  -7.00000000000000E-01  -7.00000000000000E-01   0.00000000000000E+00   0.00000000000000E+00
     -1.06691997785228E-04   5.63131758152560E-15  -1.06691997779596E-04  -2.81234051696528E-16
      3.83333333333333E-01
     -2.68333333333333E-01  -2.68333333333333E-01   0.00000000000000E+00   0.00000000000000E+00   0.00000000000000E+00
      0.00000000000000E+00   0.00000000000000E+00   2.50405151041905E-16   0.00000000000000E+00   0.00000000000000E+00
      0.00000000000000E+00   0.00000000000000E+00   1.28460457389482E-04  -2.30332370542981E-12   1.28460455086158E-04
     -1.90377757385800E-18  -7.00000000000000E-01  -7.00000000000000E-01   0.00000000000000E+00   0.00000000000000E+00
     -1.28460457396202E-04   9.01815176762180E-15  -1.28460457387184E-04  -2.76812412902554E-16
      4.00000000000000E-01
     -2.80000000000000E-01  -2.80000000000000E-01   0.00000000000000E+00   0.00000000000000E+00   0.00000000000000E+00
      0.00000000000000E+00   0.00000000000000E+00   2.36827022796431E-16   0.00000000000000E+00   0.00000000000000E+00
      0.00000000000000E+00   0.00000000000000E+00   1.52595294554738E-04  -1.40417410984781E-12   1.52595293150564E-04
      2.55591576183585E-18  -7.00000000000000E-01  -7.00000000000000E-01   0.00000000000000E+00   0.00000000000000E+00
     -1.52595294562792E-04   1.30732374710273E-14  -1.52595294549718E-04  -2.72380330342073E-16
      4.16666666666667E-01
     -2.91666666666667E-01  -2.91666666666667E-01   0.00000000000000E+00   0.00000000000000E+00   0.00000000000000E+00
      0.00000000000000E+00   0.00000000000000E+00   2.22857102512167E-16   0.00000000000000E+00   0.00000000000000E+00
      0.00000000000000E+00   0.00000000000000E+00   1.79048025334005E-04  -1.08595386132439E-12   1.79048024248051E-04
      6.97486955712621E-18  -7.00000000000000E-01  -7.00000000000000E-01   0.00000000000000E+00   0.00000000000000E+00
     -1.79048025347296E-04   2.01779949315258E-14  -1.79048025327118E-04  -2.67937742612852E-16
      4.33333333333333E-01
     -3.03333333333333E-01  -3.03333333333333E-01   0.00000000000000E+00   0.00000000000000E+00   0.00000000000000E+00
      0.00000000000000E+00   0.00000000000000E+00   2.08474885653335E-16   0.00000000000000E+00   0.00000000000000E+00
      0.00000000000000E+00   0.00000000000000E+00   2.07462870392298E-04  -1.11315987231412E-12   2.07462869279138E-04
      1.13543349334321E-17  -7.00000000000000E-01  -7.00000000000000E-01   0.00000000000000E+00   0.00000000000000E+00
     -2.07462870377137E-04  -1.85643337908520E-14  -2.07462870395701E-04  -2.63486149658806E-16
      4.50000000000000E-01
     -3.15000000000000E-01  -3.15000000000000E-01   0.00000000000000E+00   0.00000000000000E+00   0.00000000000000E+00
      0.00000000000000E+00   0.00000000000000E+00   1.93769605190011E-16   0.00000000000000E+00   0.00000000000000E+00
      0.00000000000000E+00   0.00000000000000E+00   2.38154015477819E-04  -6.00341208951870E-13   2.38154014877478E-04
      1.56987592909547E-17  -7.00000000000000E-01  -7.00000000000000E-01   0.00000000000000E+00   0.00000000000000E+00
     -2.38154015477747E-04  -1.28594849002803E-15  -2.38154015479033E-04  -2.59021505034339E-16
      4.66666666666667E-01
     -3.26666666666667E-01  -3.26666666666667E-01   0.00000000000000E+00   0.00000000000000E+00   0.00000000000000E+00
      0.00000000000000E+00   0.00000000000000E+00   1.78661572674562E-16   0.00000000000000E+00   0.00000000000000E+00
      0.00000000000000E+00   0.00000000000000E+00   2.70587369524642E-04  -8.07138541975874E-13   2.70587368717503E-04
      2.00079859624743E-17  -7.00000000000000E-01  -7.00000000000000E-01   0.00000000000000E+00   0.00000000000000E+00
     -2.70587369460699E-04  -3.41662080768184E-14  -2.70587369494865E-04  -2.54549176327888E-16
      4.83333333333333E-01
     -3.38333333333333E-01  -3.38333333333333E-01   0.00000000000000E+00   0.00000000000000E+00   0.00000000000000E+00
      0.00000000000000E+00   0.00000000000000E+00   1.63210435464508E-16   0.00000000000000E+00   0.00000000000000E+00
      0.00000000000000E+00   0.00000000000000E+00   3.04781853658868E-04  -4.02135964353041E-13   3.04781853256733E-04
      2.42847648688439E-17  -7.00000000000000E-01  -7.00000000000000E-01   0.00000000000000E+00   0.00000000000000E+00
     -3.04781853653011E-04   2.50314364883107E-15  -3.04781853650508E-04  -2.50066476167922E-16
      5.00000000000000E-01
     -3.50000000000000E-01  -3.50000000000000E-01   0.00000000000000E+00   0.00000000000000E+00   0.00000000000000E+00
      0.00000000000000E+00   0.00000000000000E+00   1.47491566675449E-16   0.00000000000000E+00   0.00000000000000E+00
      0.00000000000000E+00   0.00000000000000E+00   3.40852500948030E-04  -3.38874429775560E-13   3.40852500609156E-04
      2.85320849977370E-17  -7.00000000000000E-01  -7.00000000000000E-01   0.00000000000000E+00   0.00000000000000E+00
     -3.40852500958642E-04   4.10967321520150E-15  -3.40852500954532E-04  -2.45569637806797E-16
      5.16666666666667E-01
     -3.61666666666667E-01  -3.61666666666667E-01   0.00000000000000E+00   0.00000000000000E+00   0.00000000000000E+00
      0.00000000000000E+00   0.00000000000000E+00   1.31429637151812E-16   0.00000000000000E+00   0.00000000000000E+00
      0.00000000000000E+00   0.00000000000000E+00   3.78395108396488E-04  -3.65355307422021E-13   3.78395108031133E-04
      3.27505050922205E-17  -7.00000000000000E-01  -7.00000000000000E-01   0.00000000000000E+00   0.00000000000000E+00
     -3.78395108382000E-04   2.40044897886175E-15  -3.78395108379599E-04  -2.41065305597467E-16
      5.33333333333333E-01
     -3.73333333333333E-01  -3.73333333333333E-01   0.00000000000000E+00   0.00000000000000E+00   0.00000000000000E+00
      0.00000000000000E+00   0.00000000000000E+00   1.15035150395241E-16   0.00000000000000E+00   0.00000000000000E+00
      0.00000000000000E+00   0.00000000000000E+00   4.17259531127880E-04  -2.49571371635703E-13   4.17259530878308E-04
      3.69417481516370E-17  -7.00000000000000E-01  -7.00000000000000E-01   0.00000000000000E+00   0.00000000000000E+00
     -4.17259531126288E-04   2.51576458876458E-16  -4.17259531126037E-04  -2.36553492938079E-16
      5.50000000000000E-01
     -3.85000000000000E-01  -3.85000000000000E-01   0.00000000000000E+00   0.00000000000000E+00   0.00000000000000E+00
      0.00000000000000E+00   0.00000000000000E+00   9.84058733184888E-17   0.00000000000000E+00   0.00000000000000E+00
      0.00000000000000E+00   0.00000000000000E+00   4.57595402872788E-04  -1.98819725727031E-13   4.57595402673969E-04
      4.11086386284854E-17  -7.00000000000000E-01  -7.00000000000000E-01   0.00000000000000E+00   0.00000000000000E+00
     -4.57595402872909E-04  -1.46741962691826E-15  -4.57595402874377E-04  -2.32027799977302E-16
      5.66666666666667E-01
     -3.96666666666667E-01  -3.96666666666667E-01   0.00000000000000E+00   0.00000000000000E+00   0.00000000000000E+00
      0.00000000000000E+00   0.00000000000000E+00   8.15556614186016E-17   0.00000000000000E+00   0.00000000000000E+00
      0.00000000000000E+00   0.00000000000000E+00   4.99314654248714E-04  -1.69408156819331E-13   4.99314654079305E-04
      4.52528673417788E-17  -7.00000000000000E-01  -7.00000000000000E-01   0.00000000000000E+00   0.00000000000000E+00
     -4.99314654248379E-04  -7.45357461614251E-16  -4.99314654249124E-04  -2.27488308386884E-16
      5.83333333333333E-01
     -4.08333333333333E-01  -4.08333333333333E-01   0.00000000000000E+00   0.00000000000000E+00   0.00000000000000E+00
      0.00000000000000E+00   0.00000000000000E+00   6.44091150039198E-17   0.00000000000000E+00   0.00000000000000E+00
      0.00000000000000E+00   0.00000000000000E+00   5.42082350000709E-04  -1.67848433739394E-13   5.42082349832861E-04
      4.93751361077355E-17  -7.00000000000000E-01  -7.00000000000000E-01   0.00000000000000E+00   0.00000000000000E+00
     -5.42082350007592E-04   1.18255163428114E-14  -5.42082349995766E-04  -2.22944028291850E-16
      6.00000000000000E-01
     -4.20000000000000E-01  -4.20000000000000E-01   0.00000000000000E+00   0.00000000000000E+00   0.00000000000000E+00
      0.00000000000000E+00   0.00000000000000E+00   4.69940319403098E-17   0.00000000000000E+00   0.00000000000000E+00
      0.00000000000000E+00   0.00000000000000E+00   5.85835949521004E-04  -1.21199583412292E-13   5.85835949399805E-04
      5.34771375269824E-17  -7.00000000000000E-01  -7.00000000000000E-01   0.00000000000000E+00   0.00000000000000E+00
     -5.85835949520534E-04  -2.27247703659711E-15  -5.85835949522806E-04  -2.18392800860963E-16
      6.16666666666667E-01
     -4.31666666666667E-01  -4.31666666666667E-01   0.00000000000000E+00   0.00000000000000E+00   0.00000000000000E+00
      0.00000000000000E+00   0.00000000000000E+00   2.93786596320921E-17   0.00000000000000E+00   0.00000000000000E+00
      0.00000000000000E+00   0.00000000000000E+00   6.30637083931380E-04  -1.05751103449842E-13   6.30637083825628E-04
      5.75608814213380E-17  -7.00000000000000E-01  -7.00000000000000E-01   0.00000000000000E+00   0.00000000000000E+00
     -6.30637083931314E-04   4.67031405424996E-16  -6.30637083930847E-04  -2.13828829236997E-16
      6.33333333333334E-01
     -4.43333333333334E-01  -4.43333333333334E-01   0.00000000000000E+00   0.00000000000000E+00   0.00000000000000E+00
      0.00000000000000E+00   0.00000000000000E+00   1.16026118145476E-17   0.00000000000000E+00   0.00000000000000E+00
      0.00000000000000E+00   0.00000000000000E+00   6.76487193302629E-04  -9.32552828288795E-14   6.76487193209374E-04
      6.16280249559565E-17  -7.00000000000000E-01  -7.00000000000000E-01   0.00000000000000E+00   0.00000000000000E+00
     -6.76487193302869E-04  -1.82186063941990E-16  -6.76487193303051E-04  -2.09248858244903E-16
      6.50000000000000E-01
     -4.55000000000000E-01  -4.55000000000000E-01   0.00000000000000E+00   0.00000000000000E+00   0.00000000000000E+00
      0.00000000000000E+00   0.00000000000000E+00  -6.38017168161781E-18   0.00000000000000E+00   0.00000000000000E+00
      0.00000000000000E+00   0.00000000000000E+00   7.23180003810510E-04  -8.01211774596535E-14   7.23180003730389E-04
      6.56794311272348E-17  -7.00000000000000E-01  -7.00000000000000E-01   0.00000000000000E+00   0.00000000000000E+00
     -7.23180003810976E-04   2.25890050109937E-15  -7.23180003808718E-04  -2.04661452839769E-16
      6.66666666666667E-01
     -4.66666666666667E-01  -4.66666666666667E-01   0.00000000000000E+00   0.00000000000000E+00   0.00000000000000E+00
      0.00000000000000E+00   0.00000000000000E+00  -2.45866598156765E-17   0.00000000000000E+00   0.00000000000000E+00
      0.00000000000000E+00   0.00000000000000E+00   7.70575988127864E-04  -6.70928423624165E-14   7.70575988060772E-04
      6.97161329720381E-17  -7.00000000000000E-01  -7.00000000000000E-01   0.00000000000000E+00   0.00000000000000E+00
     -7.70575988129015E-04   1.98091421222185E-15  -7.70575988127034E-04  -2.00070142908547E-16
      6.83333333333334E-01
     -4.78333333333334E-01  -4.78333333333334E-01   0.00000000000000E+00   0.00000000000000E+00   0.00000000000000E+00
      0.00000000000000E+00   0.00000000000000E+00  -4.29896835974765E-17   0.00000000000000E+00   0.00000000000000E+00
      0.00000000000000E+00   0.00000000000000E+00   8.18646330841065E-04  -5.57442035985846E-14   8.18646330785320E-04
      7.37394395078456E-17  -7.00000000000000E-01  -7.00000000000000E-01   0.00000000000000E+00   0.00000000000000E+00
     -8.18646330840157E-04   1.92747164548154E-16  -8.18646330839964E-04  -1.95471666396799E-16
      7.00000000000001E-01
     -4.90000000000000E-01  -4.90000000000000E-01   0.00000000000000E+00   0.00000000000000E+00   0.00000000000000E+00
      0.00000000000000E+00   0.00000000000000E+00  -6.15570044848094E-17   0.00000000000000E+00   0.00000000000000E+00
      0.00000000000000E+00   0.00000000000000E+00   8.67381779531711E-04  -4.70770863222401E-14   8.67381779484634E-04
      7.77506204915847E-17  -7.00000000000000E-01  -7.00000000000000E-01   0.00000000000000E+00   0.00000000000000E+00
     -8.67381779531623E-04   4.10835307762573E-17  -8.67381779531582E-04  -1.90862577484679E-16
      7.16666666666667E-01
     -5.01666666666667E-01  -5.01666666666667E-01   0.00000000000000E+00   0.00000000000000E+00   0.00000000000000E+00
      0.00000000000000E+00   0.00000000000000E+00  -8.02523281240659E-17   0.00000000000000E+00   0.00000000000000E+00
      0.00000000000000E+00   0.00000000000000E+00   9.16795059487210E-04  -4.17837664310257E-14   9.16795059445426E-04
      8.17509112530145E-17  -7.00000000000000E-01  -7.00000000000000E-01   0.00000000000000E+00   0.00000000000000E+00
     -9.16795059486862E-04   4.00302521099053E-16  -9.16795059486462E-04  -1.86238933750281E-16
      7.33333333333334E-01
     -5.13333333333334E-01  -5.13333333333334E-01   0.00000000000000E+00   0.00000000000000E+00   0.00000000000000E+00
      0.00000000000000E+00   0.00000000000000E+00  -9.90666050055561E-17   0.00000000000000E+00   0.00000000000000E+00
      0.00000000000000E+00   0.00000000000000E+00   9.66841156232634E-04  -3.52808536746081E-14   9.66841156197353E-04
      8.57412772566676E-17  -7.00000000000000E-01  -7.00000000000000E-01   0.00000000000000E+00   0.00000000000000E+00
     -9.66841156232541E-04   4.41584249473817E-16  -9.66841156232099E-04  -1.81601177443354E-16
      7.50000000000001E-01
     -5.25000000000000E-01  -5.25000000000000E-01   0.00000000000000E+00   0.00000000000000E+00   0.00000000000000E+00
      0.00000000000000E+00   0.00000000000000E+00  -1.18057847662949E-16   0.00000000000000E+00   0.00000000000000E+00
      0.00000000000000E+00   0.00000000000000E+00   1.01732418227680E-03  -2.91618036563420E-14   1.01732418224764E-03
      8.97221937547987E-17  -7.00000000000000E-01  -7.00000000000000E-01   0.00000000000000E+00   0.00000000000000E+00
     -1.01732418227422E-03   8.03665779397908E-15  -1.01732418226618E-03  -1.76963764936149E-16
      7.66666666666667E-01
     -5.36666666666667E-01  -5.36666666666667E-01   0.00000000000000E+00   0.00000000000000E+00   0.00000000000000E+00
      0.00000000000000E+00   0.00000000000000E+00  -1.37204507172813E-16   0.00000000000000E+00   0.00000000000000E+00
      0.00000000000000E+00   0.00000000000000E+00   1.06822669143658E-03  -2.48800843079079E-14   1.06822669141170E-03
      9.36945712701402E-17  -7.00000000000000E-01  -7.00000000000000E-01   0.00000000000000E+00   0.00000000000000E+00
     -1.06822669143528E-03   5.06450076373794E-15  -1.06822669143021E-03  -1.72322726068983E-16
      7.83333333333334E-01
     -5.48333333333334E-01  -5.48333333333334E-01   0.00000000000000E+00   0.00000000000000E+00   0.00000000000000E+00
      0.00000000000000E+00   0.00000000000000E+00  -1.56488585131716E-16   0.00000000000000E+00   0.00000000000000E+00
      0.00000000000000E+00   0.00000000000000E+00   1.11952537511171E-03  -2.09944416246332E-14   1.11952537509071E-03
      9.76591883107359E-17  -7.00000000000000E-01  -7.00000000000000E-01   0.00000000000000E+00   0.00000000000000E+00
     -1.11952537511142E-03   1.36146177505923E-15  -1.11952537511006E-03  -1.67675218851013E-16
      8.00000000000001E-01
     -5.60000000000000E-01  -5.60000000000000E-01   0.00000000000000E+00   0.00000000000000E+00   0.00000000000000E+00
      0.00000000000000E+00   0.00000000000000E+00  -1.75898320918610E-16   0.00000000000000E+00   0.00000000000000E+00