DF-ISE text

Info {
  version   = 1.0
  type      = xyplot
  datasets  = [
    "time"
    "gate OuterVoltage" "gate InnerVoltage" "gate QuasiFermiPotential" "gate DisplacementCurrent" "gate eCurrent"
    "gate hCurrent" "gate TotalCurrent" "gate Charge" "source OuterVoltage" "source InnerVoltage"
    "source QuasiFermiPotential" "source DisplacementCurrent" "source eCurrent" "source hCurrent" "source TotalCurrent"
    "source Charge" "drain OuterVoltage" "drain InnerVoltage" "drain QuasiFermiPotential" "drain DisplacementCurrent"
    "drain eCurrent" "drain hCurrent" "drain TotalCurrent" "drain Charge" ]
  functions = [
    Time
    OuterVoltage InnerVoltage QuasiFermiPotential DisplacementCurrent eCurrent
    hCurrent TotalCurrent Charge OuterVoltage InnerVoltage
    QuasiFermiPotential DisplacementCurrent eCurrent hCurrent TotalCurrent
    Charge OuterVoltage InnerVoltage QuasiFermiPotential DisplacementCurrent
    eCurrent hCurrent TotalCurrent Charge ]
}

Data {
      0.00000000000000E+00
      0.00000000000000E+00   0.00000000000000E+00   0.00000000000000E+00   0.00000000000000E+00   0.00000000000000E+00
      0.00000000000000E+00   0.00000000000000E+00   4.61825721432826E-16   0.00000000000000E+00   0.00000000000000E+00
      0.00000000000000E+00   0.00000000000000E+00   5.65167442487803E-08   8.10562039049705E-18   5.65167442568859E-08
     -1.08795723796765E-16  -6.50000000000000E-01  -6.50000000000000E-01   0.00000000000000E+00   0.00000000000000E+00
     -5.65167443214355E-08   6.45676926970775E-17  -5.65167442568678E-08  -3.54236646543136E-16
      1.66666666666667E-02
     -1.08333333333333E-02  -1.08333333333333E-02   0.00000000000000E+00   0.00000000000000E+00   0.00000000000000E+00
      0.00000000000000E+00   0.00000000000000E+00   4.53571888002378E-16   0.00000000000000E+00   0.00000000000000E+00
      0.00000000000000E+00   0.00000000000000E+00   8.21507124186104E-08  -1.72498618738176E-13   8.21505399199917E-08
     -1.04516554738207E-16  -6.50000000000000E-01  -6.50000000000000E-01   0.00000000000000E+00   0.00000000000000E+00
     -8.21507004744427E-08  -9.26955140779284E-15  -8.21507097439941E-08  -3.50284938621898E-16
      3.33333333333333E-02
     -2.16666666666667E-02  -2.16666666666667E-02   0.00000000000000E+00   0.00000000000000E+00   0.00000000000000E+00
      0.00000000000000E+00   0.00000000000000E+00   4.45293755644608E-16   0.00000000000000E+00   0.00000000000000E+00
      0.00000000000000E+00   0.00000000000000E+00   1.19296728667116E-07  -3.42921899156466E-13   1.19296385745217E-07
     -1.00224020384241E-16  -6.50000000000000E-01  -6.50000000000000E-01   0.00000000000000E+00   0.00000000000000E+00
     -1.19296719123035E-07  -7.26331088886354E-15  -1.19296726386346E-07  -3.46328949124897E-16
      5.00000000000000E-02
     -3.25000000000000E-02  -3.25000000000000E-02   0.00000000000000E+00   0.00000000000000E+00   0.00000000000000E+00
      0.00000000000000E+00   0.00000000000000E+00   4.36989167993419E-16   0.00000000000000E+00   0.00000000000000E+00
      0.00000000000000E+00   0.00000000000000E+00   1.73049934235286E-07  -7.84346769980085E-16   1.73049933450939E-07
     -9.59179102435239E-17  -6.50000000000000E-01  -6.50000000000000E-01   0.00000000000000E+00   0.00000000000000E+00
     -1.73049935641336E-07   1.56789699927349E-15  -1.73049934073439E-07  -3.42368719417747E-16
      6.66666666666667E-02
     -4.33333333333333E-02  -4.33333333333333E-02   0.00000000000000E+00   0.00000000000000E+00   0.00000000000000E+00
      0.00000000000000E+00   0.00000000000000E+00   4.28655538327389E-16   0.00000000000000E+00   0.00000000000000E+00
      0.00000000000000E+00   0.00000000000000E+00   2.50709014800454E-07  -2.75750993919863E-16   2.50709014524703E-07
     -9.15981889731005E-17  -6.50000000000000E-01  -6.50000000000000E-01   0.00000000000000E+00   0.00000000000000E+00
     -2.50709014889276E-07  -4.84302143140972E-17  -2.50709014937706E-07  -3.38404295615446E-16
      8.33333333333333E-02
     -5.41666666666667E-02  -5.41666666666667E-02   0.00000000000000E+00   0.00000000000000E+00   0.00000000000000E+00
      0.00000000000000E+00   0.00000000000000E+00   4.20289708317077E-16   0.00000000000000E+00   0.00000000000000E+00
      0.00000000000000E+00   0.00000000000000E+00   3.62691567809327E-07   2.60635783618504E-16   3.62691568069962E-07
     -8.72650421631601E-17  -6.50000000000000E-01  -6.50000000000000E-01   0.00000000000000E+00   0.00000000000000E+00
     -3.62691571231741E-07   2.83613696729390E-15  -3.62691568395604E-07  -3.34435729982889E-16
      1.00000000000000E-01
     -6.50000000000000E-02  -6.50000000000000E-02   0.00000000000000E+00   0.00000000000000E+00   0.00000000000000E+00
      0.00000000000000E+00   0.00000000000000E+00   4.11887759630249E-16   0.00000000000000E+00   0.00000000000000E+00
      0.00000000000000E+00   0.00000000000000E+00   5.23800779860272E-07   8.92996765022050E-16   5.23800780753269E-07
     -8.29189288343496E-17  -6.50000000000000E-01  -6.50000000000000E-01   0.00000000000000E+00   0.00000000000000E+00
     -5.23800783010181E-07   1.99689565631031E-15  -5.23800781013286E-07  -3.30463082807754E-16
      1.16666666666667E-01
     -7.58333333333333E-02  -7.58333333333333E-02   0.00000000000000E+00   0.00000000000000E+00   0.00000000000000E+00
      0.00000000000000E+00   0.00000000000000E+00   4.03444766877812E-16   0.00000000000000E+00   0.00000000000000E+00
      0.00000000000000E+00   0.00000000000000E+00   7.54955001744376E-07  -8.64981794645439E-16   7.54955000879395E-07
     -7.85606403664076E-17  -6.50000000000000E-01  -6.50000000000000E-01   0.00000000000000E+00   0.00000000000000E+00
     -7.54955000177998E-07  -8.65210131972747E-16  -7.54955001043208E-07  -3.26486424824537E-16
      1.33333333333333E-01
     -8.66666666666667E-02  -8.66666666666667E-02   0.00000000000000E+00   0.00000000000000E+00   0.00000000000000E+00
      0.00000000000000E+00   0.00000000000000E+00   3.94954481396477E-16   0.00000000000000E+00   0.00000000000000E+00
      0.00000000000000E+00   0.00000000000000E+00   1.08550820157710E-06  -1.42087504013420E-15   1.08550820015623E-06
     -7.41913650286118E-17  -6.50000000000000E-01  -6.50000000000000E-01   0.00000000000000E+00   0.00000000000000E+00
     -1.08550819992303E-06  -4.50427725118979E-16  -1.08550820037346E-06  -3.22505840335562E-16
      1.50000000000000E-01
     -9.75000000000000E-02  -9.75000000000000E-02   0.00000000000000E+00   0.00000000000000E+00   0.00000000000000E+00
      0.00000000000000E+00   0.00000000000000E+00   3.86408938824846E-16   0.00000000000000E+00   0.00000000000000E+00
      0.00000000000000E+00   0.00000000000000E+00   1.55629114563843E-06  -2.61077474081553E-15   1.55629114302766E-06
     -6.98127556177316E-17  -6.50000000000000E-01  -6.50000000000000E-01   0.00000000000000E+00   0.00000000000000E+00
     -1.55629114394396E-06   3.23563939139800E-17  -1.55629114391160E-06  -3.18521431041380E-16
      1.66666666666667E-01
     -1.08333333333333E-01  -1.08333333333333E-01   0.00000000000000E+00   0.00000000000000E+00   0.00000000000000E+00
      0.00000000000000E+00   0.00000000000000E+00   3.77797992186192E-16   0.00000000000000E+00   0.00000000000000E+00
      0.00000000000000E+00   0.00000000000000E+00   2.22347395726021E-06  -3.38702653392079E-15   2.22347395387318E-06
     -6.54269952504519E-17  -6.50000000000000E-01  -6.50000000000000E-01   0.00000000000000E+00   0.00000000000000E+00
     -2.22347395770918E-06   5.49053081518115E-16  -2.22347395716013E-06  -3.14533320325523E-16
      1.83333333333333E-01
     -1.19166666666667E-01  -1.19166666666667E-01   0.00000000000000E+00   0.00000000000000E+00   0.00000000000000E+00
      0.00000000000000E+00   0.00000000000000E+00   3.69108788521833E-16   0.00000000000000E+00   0.00000000000000E+00
      0.00000000000000E+00   0.00000000000000E+00   3.16326843121504E-06  -9.67604574781653E-15   3.16326842153899E-06
     -6.10368529575887E-17  -6.50000000000000E-01  -6.50000000000000E-01   0.00000000000000E+00   0.00000000000000E+00
     -3.16326843204425E-06   5.80985236348125E-16  -3.16326843146326E-06  -3.10541657216697E-16
      2.00000000000000E-01
     -1.30000000000000E-01  -1.30000000000000E-01   0.00000000000000E+00   0.00000000000000E+00   0.00000000000000E+00
      0.00000000000000E+00   0.00000000000000E+00   3.60325232518252E-16   0.00000000000000E+00   0.00000000000000E+00
      0.00000000000000E+00   0.00000000000000E+00   4.47733227773825E-06  -2.64487834952329E-14   4.47733225128947E-06
     -5.66457167273664E-17  -6.50000000000000E-01  -6.50000000000000E-01   0.00000000000000E+00   0.00000000000000E+00
     -4.47733227770606E-06   6.52442549095595E-16  -4.47733227705362E-06  -3.06546618689902E-16
      2.16666666666667E-01
     -1.40833333333333E-01  -1.40833333333333E-01   0.00000000000000E+00   0.00000000000000E+00   0.00000000000000E+00
      0.00000000000000E+00   0.00000000000000E+00   3.51427512322883E-16   0.00000000000000E+00   0.00000000000000E+00
      0.00000000000000E+00   0.00000000000000E+00   6.29851086503854E-06  -6.01098554997177E-14   6.29851080492868E-06
     -5.22575882854938E-17  -6.50000000000000E-01  -6.50000000000000E-01   0.00000000000000E+00   0.00000000000000E+00
     -6.29851086521204E-06   7.61044270649663E-16  -6.29851086445099E-06  -3.02548408628022E-16
      2.33333333333333E-01
     -1.51666666666667E-01  -1.51666666666667E-01   0.00000000000000E+00   0.00000000000000E+00   0.00000000000000E+00
      0.00000000000000E+00   0.00000000000000E+00   3.42391788482019E-16   0.00000000000000E+00   0.00000000000000E+00
      0.00000000000000E+00   0.00000000000000E+00   8.79632728285251E-06  -1.24782451896929E-13   8.79632715807005E-06
     -4.78770236700306E-17  -6.50000000000000E-01  -6.50000000000000E-01   0.00000000000000E+00   0.00000000000000E+00
     -8.79632728302972E-06   4.65595468247866E-16  -8.79632728256413E-06  -2.98547251782722E-16
      2.50000000000000E-01
     -1.62500000000000E-01  -1.62500000000000E-01   0.00000000000000E+00   0.00000000000000E+00   0.00000000000000E+00
      0.00000000000000E+00   0.00000000000000E+00   3.33190137982307E-16   0.00000000000000E+00   0.00000000000000E+00
      0.00000000000000E+00   0.00000000000000E+00   1.21816235589703E-05  -2.37602424753629E-13   1.21816233213679E-05
     -4.35090103779330E-17  -6.50000000000000E-01  -6.50000000000000E-01   0.00000000000000E+00   0.00000000000000E+00
     -1.21816235594019E-05   4.56786624646807E-16  -1.21816235589451E-05  -2.94543381376209E-16
      2.66666666666667E-01
     -1.73333333333333E-01  -1.73333333333333E-01   0.00000000000000E+00   0.00000000000000E+00   0.00000000000000E+00
      0.00000000000000E+00   0.00000000000000E+00   3.23790750138785E-16   0.00000000000000E+00   0.00000000000000E+00
      0.00000000000000E+00   0.00000000000000E+00   1.67104285958322E-05  -4.15334152040990E-13   1.67104281804981E-05
     -3.91587899752555E-17  -6.50000000000000E-01  -6.50000000000000E-01   0.00000000000000E+00   0.00000000000000E+00
     -1.67104285953753E-05   2.40535790866763E-17  -1.67104285953513E-05  -2.90537019746825E-16
      2.83333333333333E-01
     -1.84166666666667E-01  -1.84166666666667E-01   0.00000000000000E+00   0.00000000000000E+00   0.00000000000000E+00
      0.00000000000000E+00   0.00000000000000E+00   3.14158097507183E-16   0.00000000000000E+00   0.00000000000000E+00
      0.00000000000000E+00   0.00000000000000E+00   2.26894485375338E-05  -6.66256550533448E-13   2.26894478712772E-05
     -3.48316696974607E-17  -6.50000000000000E-01  -6.50000000000000E-01   0.00000000000000E+00   0.00000000000000E+00
     -2.26894485365562E-05  -4.85721262002074E-16  -2.26894485370420E-05  -2.86528353160030E-16
      3.00000000000000E-01
     -1.95000000000000E-01  -1.95000000000000E-01   0.00000000000000E+00   0.00000000000000E+00   0.00000000000000E+00
      0.00000000000000E+00   0.00000000000000E+00   3.04252100074465E-16   0.00000000000000E+00   0.00000000000000E+00
      0.00000000000000E+00   0.00000000000000E+00   3.04922722919538E-05  -9.93696818783714E-13   3.04922712982570E-05
     -3.05329306421737E-17  -6.50000000000000E-01  -6.50000000000000E-01   0.00000000000000E+00   0.00000000000000E+00
     -3.04922722927826E-05   3.57905488827332E-16  -3.04922722924247E-05  -2.82517505135561E-16
      3.16666666666667E-01
     -2.05833333333333E-01  -2.05833333333333E-01   0.00000000000000E+00   0.00000000000000E+00   0.00000000000000E+00
      0.00000000000000E+00   0.00000000000000E+00   2.94022887588198E-16   0.00000000000000E+00   0.00000000000000E+00
      0.00000000000000E+00   0.00000000000000E+00   4.06196144059451E-05  -1.43677249412616E-12   4.06196129691726E-05
     -2.62681247347603E-17  -6.50000000000000E-01  -6.50000000000000E-01   0.00000000000000E+00   0.00000000000000E+00
     -4.06196144049583E-05  -7.05074684528391E-17  -4.06196144050289E-05  -2.78504520780109E-16
      3.33333333333333E-01
     -2.16666666666667E-01  -2.16666666666667E-01   0.00000000000000E+00   0.00000000000000E+00   0.00000000000000E+00
      0.00000000000000E+00   0.00000000000000E+00   2.83396336955965E-16   0.00000000000000E+00   0.00000000000000E+00
      0.00000000000000E+00   0.00000000000000E+00   5.38482043466994E-05  -6.00333979876956E-12   5.38481983433596E-05
     -2.20445833253658E-17  -6.50000000000000E-01  -6.50000000000000E-01   0.00000000000000E+00   0.00000000000000E+00
     -5.38482043568981E-05  -5.75786055449743E-15  -5.38482043626559E-05  -2.74489343853636E-16
      3.50000000000000E-01
     -2.27500000000000E-01  -2.27500000000000E-01   0.00000000000000E+00   0.00000000000000E+00   0.00000000000000E+00
      0.00000000000000E+00   0.00000000000000E+00   2.72715932850121E-16   0.00000000000000E+00   0.00000000000000E+00
      0.00000000000000E+00   0.00000000000000E+00   6.69796852874252E-05  -3.30516430796434E-11   6.69796522357821E-05
     -1.78404441259575E-17  -6.50000000000000E-01  -6.50000000000000E-01   0.00000000000000E+00   0.00000000000000E+00
     -6.69796853125204E-05  -8.91214644566831E-13  -6.69796862037351E-05  -2.70469413543976E-16
      3.66666666666667E-01
     -2.38333333333333E-01  -2.38333333333333E-01   0.00000000000000E+00   0.00000000000000E+00   0.00000000000000E+00
      0.00000000000000E+00   0.00000000000000E+00   2.61946601917052E-16   0.00000000000000E+00   0.00000000000000E+00
      0.00000000000000E+00   0.00000000000000E+00   8.04551019013614E-05  -7.94989903878074E-12   8.04550939514624E-05
     -1.36409334182276E-17  -6.50000000000000E-01  -6.50000000000000E-01   0.00000000000000E+00   0.00000000000000E+00
     -8.04551018922466E-05  -1.30157155730006E-13  -8.04551020224037E-05  -2.66445301151340E-16
      3.83333333333333E-01
     -2.49166666666667E-01  -2.49166666666667E-01   0.00000000000000E+00   0.00000000000000E+00   0.00000000000000E+00
      0.00000000000000E+00   0.00000000000000E+00   2.50911970824360E-16   0.00000000000000E+00   0.00000000000000E+00
      0.00000000000000E+00   0.00000000000000E+00   9.56484446878551E-05  -1.52293712188411E-12   9.56484431649179E-05
     -9.47684388490860E-18  -6.50000000000000E-01  -6.50000000000000E-01   0.00000000000000E+00   0.00000000000000E+00
     -9.56484446918664E-05  -3.02459799126042E-15  -9.56484446948910E-05  -2.62417727607190E-16
      4.00000000000000E-01
     -2.60000000000000E-01  -2.60000000000000E-01   0.00000000000000E+00   0.00000000000000E+00   0.00000000000000E+00
      0.00000000000000E+00   0.00000000000000E+00   2.39613797130878E-16   0.00000000000000E+00   0.00000000000000E+00
      0.00000000000000E+00   0.00000000000000E+00   1.12225673094835E-04  -2.00867804106206E-12   1.12225671086157E-04
     -5.34727386533916E-18  -6.50000000000000E-01  -6.50000000000000E-01   0.00000000000000E+00   0.00000000000000E+00
     -1.12225673096977E-04  -8.69951373559333E-15  -1.12225673105677E-04  -2.58387093868240E-16
      4.16666666666667E-01
     -2.70833333333333E-01  -2.70833333333333E-01   0.00000000000000E+00   0.00000000000000E+00   0.00000000000000E+00
      0.00000000000000E+00   0.00000000000000E+00   2.28071811279370E-16   0.00000000000000E+00   0.00000000000000E+00
      0.00000000000000E+00   0.00000000000000E+00   1.30546386340038E-04  -5.02309440535095E-13   1.30546385837728E-04
     -1.24818154760152E-18  -6.50000000000000E-01  -6.50000000000000E-01   0.00000000000000E+00   0.00000000000000E+00
     -1.30546386341152E-04   2.41022436755955E-18  -1.30546386341150E-04  -2.54352119489257E-16
      4.33333333333333E-01
     -2.81666666666667E-01  -2.81666666666667E-01   0.00000000000000E+00   0.00000000000000E+00   0.00000000000000E+00
      0.00000000000000E+00   0.00000000000000E+00   2.16264884248169E-16   0.00000000000000E+00   0.00000000000000E+00
      0.00000000000000E+00   0.00000000000000E+00   1.50137062902209E-04  -1.00184661914780E-12   1.50137061900362E-04
      2.81894532935199E-18  -6.50000000000000E-01  -6.50000000000000E-01   0.00000000000000E+00   0.00000000000000E+00
     -1.50137062938123E-04   3.13975858232727E-14  -1.50137062906726E-04  -2.50314352359380E-16
      4.50000000000000E-01
     -2.92500000000000E-01  -2.92500000000000E-01   0.00000000000000E+00   0.00000000000000E+00   0.00000000000000E+00
      0.00000000000000E+00   0.00000000000000E+00   2.04248721175433E-16   0.00000000000000E+00   0.00000000000000E+00
      0.00000000000000E+00   0.00000000000000E+00   1.71328448246040E-04  -3.18123033707366E-13   1.71328447927917E-04
      6.85754555277842E-18  -6.50000000000000E-01  -6.50000000000000E-01   0.00000000000000E+00   0.00000000000000E+00
     -1.71328448248280E-04   8.55603106162410E-16  -1.71328448247425E-04  -2.46271072578706E-16
      4.66666666666667E-01
     -3.03333333333333E-01  -3.03333333333333E-01   0.00000000000000E+00   0.00000000000000E+00   0.00000000000000E+00
      0.00000000000000E+00   0.00000000000000E+00   1.91978539790269E-16   0.00000000000000E+00   0.00000000000000E+00
      0.00000000000000E+00   0.00000000000000E+00   1.93712515837272E-04  -4.83968798836074E-13   1.93712515353303E-04
      1.08673821221202E-17  -6.50000000000000E-01  -6.50000000000000E-01   0.00000000000000E+00   0.00000000000000E+00
     -1.93712515830952E-04  -8.45682962432846E-15  -1.93712515839409E-04  -2.42225288835698E-16
      4.83333333333333E-01
     -3.14166666666667E-01  -3.14166666666667E-01   0.00000000000000E+00   0.00000000000000E+00   0.00000000000000E+00
      0.00000000000000E+00   0.00000000000000E+00   1.79496799703902E-16   0.00000000000000E+00   0.00000000000000E+00
      0.00000000000000E+00   0.00000000000000E+00   2.17380647547244E-04  -2.11577071618466E-13   2.17380647335667E-04
      1.48510791154738E-17  -6.50000000000000E-01  -6.50000000000000E-01   0.00000000000000E+00   0.00000000000000E+00
     -2.17380647550115E-04   4.14341281710450E-15  -2.17380647545971E-04  -2.38174685220304E-16
      5.00000000000000E-01
     -3.25000000000000E-01  -3.25000000000000E-01   0.00000000000000E+00   0.00000000000000E+00   0.00000000000000E+00
      0.00000000000000E+00   0.00000000000000E+00   1.66833106797639E-16   0.00000000000000E+00   0.00000000000000E+00
      0.00000000000000E+00   0.00000000000000E+00   2.42376950572497E-04  -1.69928772803615E-13   2.42376950402568E-04
      1.88106280423510E-17  -6.50000000000000E-01  -6.50000000000000E-01   0.00000000000000E+00   0.00000000000000E+00
     -2.42376950572065E-04  -2.71212178099982E-17  -2.42376950572092E-04  -2.34117752332106E-16
      5.16666666666667E-01
     -3.35833333333333E-01  -3.35833333333333E-01   0.00000000000000E+00   0.00000000000000E+00   0.00000000000000E+00
      0.00000000000000E+00   0.00000000000000E+00   1.53930091851925E-16   0.00000000000000E+00   0.00000000000000E+00
      0.00000000000000E+00   0.00000000000000E+00   2.68313668259802E-04  -2.47768792791224E-13   2.68313668012034E-04
      2.27454499075507E-17  -6.50000000000000E-01  -6.50000000000000E-01   0.00000000000000E+00   0.00000000000000E+00
     -2.68313668275612E-04   1.27159013578903E-14  -2.68313668262897E-04  -2.30059555172217E-16
      5.33333333333333E-01
     -3.46666666666667E-01  -3.46666666666667E-01   0.00000000000000E+00   0.00000000000000E+00   0.00000000000000E+00
      0.00000000000000E+00   0.00000000000000E+00   1.40847271320427E-16   0.00000000000000E+00   0.00000000000000E+00
      0.00000000000000E+00   0.00000000000000E+00   2.95318865731125E-04  -1.24083703989152E-13   2.95318865607041E-04
      2.66579999611787E-17  -6.50000000000000E-01  -6.50000000000000E-01   0.00000000000000E+00   0.00000000000000E+00
     -2.95318865731181E-04   2.80495612044342E-16  -2.95318865730900E-04  -2.25995845676916E-16
      5.50000000000000E-01
     -3.57500000000000E-01  -3.57500000000000E-01   0.00000000000000E+00   0.00000000000000E+00   0.00000000000000E+00
      0.00000000000000E+00   0.00000000000000E+00   1.27617947961584E-16   0.00000000000000E+00   0.00000000000000E+00
      0.00000000000000E+00   0.00000000000000E+00   3.23430028693828E-04  -1.12399599420849E-13   3.23430028581428E-04
      3.05499894083785E-17  -6.50000000000000E-01  -6.50000000000000E-01   0.00000000000000E+00   0.00000000000000E+00
     -3.23430028693261E-04  -6.31896414954598E-16  -3.23430028693893E-04  -2.21924298386914E-16
      5.66666666666667E-01
     -3.68333333333333E-01  -3.68333333333333E-01   0.00000000000000E+00   0.00000000000000E+00   0.00000000000000E+00
      0.00000000000000E+00   0.00000000000000E+00   1.14194576008510E-16   0.00000000000000E+00   0.00000000000000E+00
      0.00000000000000E+00   0.00000000000000E+00   3.52380181531377E-04  -1.20948725419710E-13   3.52380181410429E-04
      3.44215216017175E-17  -6.50000000000000E-01  -6.50000000000000E-01   0.00000000000000E+00   0.00000000000000E+00
     -3.52380181533847E-04   5.97573191908848E-15  -3.52380181527871E-04  -2.17850587940236E-16
      5.83333333333333E-01
     -3.79166666666667E-01  -3.79166666666667E-01   0.00000000000000E+00   0.00000000000000E+00   0.00000000000000E+00
      0.00000000000000E+00   0.00000000000000E+00   1.00581753642453E-16   0.00000000000000E+00   0.00000000000000E+00
      0.00000000000000E+00   0.00000000000000E+00   3.82078008005453E-04  -9.89848020116011E-14   3.82078007906468E-04
      3.82736337901845E-17  -6.50000000000000E-01  -6.50000000000000E-01   0.00000000000000E+00   0.00000000000000E+00
     -3.82078008003250E-04   6.20620387296676E-15  -3.82078007997044E-04  -2.13774768931754E-16
      6.00000000000000E-01
     -3.90000000000000E-01  -3.90000000000000E-01   0.00000000000000E+00   0.00000000000000E+00   0.00000000000000E+00
      0.00000000000000E+00   0.00000000000000E+00   8.68382874755028E-17   0.00000000000000E+00   0.00000000000000E+00
      0.00000000000000E+00   0.00000000000000E+00   4.12644209027893E-04  -7.38247228945094E-14   4.12644208954068E-04
      4.21082560688829E-17  -6.50000000000000E-01  -6.50000000000000E-01   0.00000000000000E+00   0.00000000000000E+00
     -4.12644209027616E-04  -3.59870211003604E-16  -4.12644209027976E-04  -2.09691255325078E-16
      6.16666666666667E-01
     -4.00833333333333E-01  -4.00833333333333E-01   0.00000000000000E+00   0.00000000000000E+00   0.00000000000000E+00
      0.00000000000000E+00   0.00000000000000E+00   7.29780346964006E-17   0.00000000000000E+00   0.00000000000000E+00
      0.00000000000000E+00   0.00000000000000E+00   4.44051384712940E-04  -6.59934048910693E-14   4.44051384646947E-04
      4.59265058019552E-17  -6.50000000000000E-01  -6.50000000000000E-01   0.00000000000000E+00   0.00000000000000E+00
     -4.44051384712654E-04  -2.41192320411818E-16  -4.44051384712895E-04  -2.05599055063967E-16
      6.33333333333334E-01
     -4.11666666666667E-01  -4.11666666666667E-01   0.00000000000000E+00   0.00000000000000E+00   0.00000000000000E+00
      0.00000000000000E+00   0.00000000000000E+00   5.89548634000440E-17   0.00000000000000E+00   0.00000000000000E+00
      0.00000000000000E+00   0.00000000000000E+00   4.76083721298057E-04  -6.84765889799579E-14   4.76083721229580E-04
      4.97286775185856E-17  -6.50000000000000E-01  -6.50000000000000E-01   0.00000000000000E+00   0.00000000000000E+00
     -4.76083721298532E-04   6.63895417233569E-15  -4.76083721291893E-04  -2.01505628330346E-16
      6.50000000000000E-01
     -4.22500000000000E-01  -4.22500000000000E-01   0.00000000000000E+00   0.00000000000000E+00   0.00000000000000E+00
      0.00000000000000E+00   0.00000000000000E+00   4.47735868791462E-17   0.00000000000000E+00   0.00000000000000E+00
      0.00000000000000E+00   0.00000000000000E+00   5.08678858916210E-04  -5.03955211013943E-14   5.08678858865815E-04
      5.35157192164411E-17  -6.50000000000000E-01  -6.50000000000000E-01   0.00000000000000E+00   0.00000000000000E+00
     -5.08678858917794E-04  -3.91999457418737E-16  -5.08678858918186E-04  -1.97410776113955E-16
      6.66666666666667E-01
     -4.33333333333334E-01  -4.33333333333334E-01   0.00000000000000E+00   0.00000000000000E+00   0.00000000000000E+00
      0.00000000000000E+00   0.00000000000000E+00   3.04716375822815E-17   0.00000000000000E+00   0.00000000000000E+00
      0.00000000000000E+00   0.00000000000000E+00   5.41883951467696E-04  -4.51646847727307E-14   5.41883951422531E-04
      5.72889464015041E-17  -6.50000000000000E-01  -6.50000000000000E-01   0.00000000000000E+00   0.00000000000000E+00
     -5.41883951467669E-04   1.21226145429735E-16  -5.41883951467548E-04  -1.93309857320504E-16
      6.83333333333334E-01
     -4.44166666666667E-01  -4.44166666666667E-01   0.00000000000000E+00   0.00000000000000E+00   0.00000000000000E+00
      0.00000000000000E+00   0.00000000000000E+00   1.60758657226488E-17   0.00000000000000E+00   0.00000000000000E+00
      0.00000000000000E+00   0.00000000000000E+00   5.75725151601676E-04  -4.10342945996210E-14   5.75725151560642E-04
      6.10494975716613E-17  -6.50000000000000E-01  -6.50000000000000E-01   0.00000000000000E+00   0.00000000000000E+00
     -5.75725151601537E-04   1.63513018768357E-16  -5.75725151601373E-04  -1.89199704892850E-16
      7.00000000000001E-01
     -4.55000000000000E-01  -4.55000000000000E-01   0.00000000000000E+00   0.00000000000000E+00   0.00000000000000E+00
      0.00000000000000E+00   0.00000000000000E+00   1.58361227346985E-18   0.00000000000000E+00   0.00000000000000E+00
      0.00000000000000E+00   0.00000000000000E+00   6.10144135071603E-04  -3.57120785603171E-14   6.10144135035891E-04
      6.47981362956981E-17  -6.50000000000000E-01  -6.50000000000000E-01   0.00000000000000E+00   0.00000000000000E+00
     -6.10144135071759E-04   2.10740675098334E-16  -6.10144135071548E-04  -1.85081853857041E-16
      7.16666666666667E-01
     -4.65833333333334E-01  -4.65833333333334E-01   0.00000000000000E+00   0.00000000000000E+00   0.00000000000000E+00
      0.00000000000000E+00   0.00000000000000E+00  -1.30417943023642E-17   0.00000000000000E+00   0.00000000000000E+00
      0.00000000000000E+00   0.00000000000000E+00   6.44985379389915E-04  -3.08606649896741E-14   6.44985379359054E-04
      6.85352617442377E-17  -6.50000000000000E-01  -6.50000000000000E-01   0.00000000000000E+00   0.00000000000000E+00
     -6.44985379395893E-04   6.04472945806876E-15  -6.44985379389848E-04  -1.80964573702004E-16
      7.33333333333334E-01
     -4.76666666666667E-01  -4.76666666666667E-01   0.00000000000000E+00   0.00000000000000E+00   0.00000000000000E+00
      0.00000000000000E+00   0.00000000000000E+00  -2.77851912534556E-17   0.00000000000000E+00   0.00000000000000E+00
      0.00000000000000E+00   0.00000000000000E+00   6.80239576400789E-04  -2.75786083179530E-14   6.80239576373210E-04
      7.22617608288132E-17  -6.50000000000000E-01  -6.50000000000000E-01   0.00000000000000E+00   0.00000000000000E+00
     -6.80239576401056E-04   5.27255161428511E-16  -6.80239576400529E-04  -1.76845260600854E-16
      7.50000000000001E-01
     -4.87500000000000E-01  -4.87500000000000E-01   0.00000000000000E+00   0.00000000000000E+00   0.00000000000000E+00
      0.00000000000000E+00   0.00000000000000E+00  -4.26320524702033E-17   0.00000000000000E+00   0.00000000000000E+00
      0.00000000000000E+00   0.00000000000000E+00   7.15898950077708E-04  -2.41269121981239E-14   7.15898950053581E-04
      7.59784674743087E-17  -6.50000000000000E-01  -6.50000000000000E-01   0.00000000000000E+00   0.00000000000000E+00
     -7.15898950077654E-04   1.80352736155799E-16  -7.15898950077474E-04  -1.72721618470306E-16
      7.66666666666667E-01
     -4.98333333333334E-01  -4.98333333333334E-01   0.00000000000000E+00   0.00000000000000E+00   0.00000000000000E+00
      0.00000000000000E+00   0.00000000000000E+00  -5.75594460090545E-17   0.00000000000000E+00   0.00000000000000E+00
      0.00000000000000E+00   0.00000000000000E+00   7.51985926576386E-04  -2.14012882057258E-14   7.51985926554984E-04
      7.96862554163001E-17  -6.50000000000000E-01  -6.50000000000000E-01   0.00000000000000E+00   0.00000000000000E+00
     -7.51985926576391E-04   1.81053506236235E-16  -7.51985926576210E-04  -1.68590035269834E-16
      7.83333333333334E-01
     -5.09166666666667E-01  -5.09166666666667E-01   0.00000000000000E+00   0.00000000000000E+00   0.00000000000000E+00
      0.00000000000000E+00   0.00000000000000E+00  -7.25517743685257E-17   0.00000000000000E+00   0.00000000000000E+00
      0.00000000000000E+00   0.00000000000000E+00   7.88507093059435E-04  -1.89559510100450E-14   7.88507093040479E-04
      8.33858895338791E-17  -6.50000000000000E-01  -6.50000000000000E-01   0.00000000000000E+00   0.00000000000000E+00
     -7.88507093059462E-04   1.65056128642448E-16  -7.88507093059297E-04  -1.64447916960754E-16
      8.00000000000001E-01
     -5.20000000000001E-01  -5.20000000000001E-01   0.00000000000000E+00   0.00000000000000E+00   0.00000000000000E+00
      0.00000000000000E+00   0.00000000000000E+00  -8.76305972086454E-17   0.00000000000000E+00   0.00000000000000E+00