DF-ISE text

Info {
  version   = 1.0
  type      = xyplot
  datasets  = [
    "time"
    "gate OuterVoltage" "gate InnerVoltage" "gate QuasiFermiPotential" "gate DisplacementCurrent" "gate eCurrent"
    "gate hCurrent" "gate TotalCurrent" "gate Charge" "source OuterVoltage" "source InnerVoltage"
    "source QuasiFermiPotential" "source DisplacementCurrent" "source eCurrent" "source hCurrent" "source TotalCurrent"
    "source Charge" "drain OuterVoltage" "drain InnerVoltage" "drain QuasiFermiPotential" "drain DisplacementCurrent"
    "drain eCurrent" "drain hCurrent" "drain TotalCurrent" "drain Charge" ]
  functions = [
    Time
    OuterVoltage InnerVoltage QuasiFermiPotential DisplacementCurrent eCurrent
    hCurrent TotalCurrent Charge OuterVoltage InnerVoltage
    QuasiFermiPotential DisplacementCurrent eCurrent hCurrent TotalCurrent
    Charge OuterVoltage InnerVoltage QuasiFermiPotential DisplacementCurrent
    eCurrent hCurrent TotalCurrent Charge ]
}

Data {
      0.00000000000000E+00
      0.00000000000000E+00   0.00000000000000E+00   0.00000000000000E+00   0.00000000000000E+00   0.00000000000000E+00
      0.00000000000000E+00   0.00000000000000E+00  -4.48529112862658E-16   0.00000000000000E+00   0.00000000000000E+00
      0.00000000000000E+00   0.00000000000000E+00  -5.78164691265457E-08  -5.47042293147151E-25  -5.78164691265457E-08
      1.09038692006568E-16   6.50000000000000E-01   6.50000000000000E-01   0.00000000000000E+00   0.00000000000000E+00
      5.78164691267592E-08   2.87853218841133E-22   5.78164691267595E-08   3.40701992760653E-16
      1.66666666666667E-02
      1.08333333333333E-02   1.08333333333333E-02   0.00000000000000E+00   0.00000000000000E+00   0.00000000000000E+00
      0.00000000000000E+00   0.00000000000000E+00  -4.40770374350967E-16   0.00000000000000E+00   0.00000000000000E+00
      0.00000000000000E+00   0.00000000000000E+00  -8.40112436618861E-08  -1.50116254510241E-20  -8.40112436619011E-08
      1.04990919370657E-16   6.50000000000000E-01   6.50000000000000E-01   0.00000000000000E+00   0.00000000000000E+00
      8.40113747060177E-08   1.48131757298745E-21   8.40113747060192E-08   3.37004124671158E-16
      3.33333333333333E-02
      2.16666666666667E-02   2.16666666666667E-02   0.00000000000000E+00   0.00000000000000E+00   0.00000000000000E+00
      0.00000000000000E+00   0.00000000000000E+00  -4.32993413333382E-16   0.00000000000000E+00   0.00000000000000E+00
      0.00000000000000E+00   0.00000000000000E+00  -1.21970322803137E-07  -3.93953510042041E-20  -1.21970322803176E-07
      1.00932342956662E-16   6.50000000000000E-01   6.50000000000000E-01   0.00000000000000E+00   0.00000000000000E+00
      1.21970981110665E-07   5.93008987016764E-21   1.21970981110671E-07   3.33302719576304E-16
      5.00000000000000E-02
      3.25000000000000E-02   3.25000000000000E-02   0.00000000000000E+00   0.00000000000000E+00   0.00000000000000E+00
      0.00000000000000E+00   0.00000000000000E+00  -4.25196878449936E-16   0.00000000000000E+00   0.00000000000000E+00
      0.00000000000000E+00   0.00000000000000E+00  -1.76913462423378E-07   1.63008259338801E-22  -1.76913462423378E-07
      9.68628365558794E-17   6.50000000000000E-01   6.50000000000000E-01   0.00000000000000E+00   0.00000000000000E+00
      1.76913463448308E-07   1.84962465010897E-21   1.76913463448310E-07   3.29597763112314E-16
      6.66666666666667E-02
      4.33333333333333E-02   4.33333333333333E-02   0.00000000000000E+00   0.00000000000000E+00   0.00000000000000E+00
      0.00000000000000E+00   0.00000000000000E+00  -4.17379098369718E-16   0.00000000000000E+00   0.00000000000000E+00
      0.00000000000000E+00   0.00000000000000E+00  -2.56327198109329E-07   4.79095339755638E-23  -2.56327198109329E-07
      9.27823427343605E-17   6.50000000000000E-01   6.50000000000000E-01   0.00000000000000E+00   0.00000000000000E+00
      2.56327198834967E-07   1.81583939578850E-21   2.56327198834969E-07   3.25889246867435E-16
      8.33333333333333E-02
      5.41666666666667E-02   5.41666666666667E-02   0.00000000000000E+00   0.00000000000000E+00   0.00000000000000E+00
      0.00000000000000E+00   0.00000000000000E+00  -4.09537977526921E-16   0.00000000000000E+00   0.00000000000000E+00
      0.00000000000000E+00   0.00000000000000E+00  -3.70926403942528E-07   1.37022474824491E-23  -3.70926403942528E-07
      8.86908976356691E-17   6.50000000000000E-01   6.50000000000000E-01   0.00000000000000E+00   0.00000000000000E+00
      3.70926404594312E-07   2.06113234847689E-21   3.70926404594314E-07   3.22177170954338E-16
      1.00000000000000E-01
      6.50000000000000E-02   6.50000000000000E-02   0.00000000000000E+00   0.00000000000000E+00   0.00000000000000E+00
      0.00000000000000E+00   0.00000000000000E+00  -4.01670857489975E-16   0.00000000000000E+00   0.00000000000000E+00
      0.00000000000000E+00   0.00000000000000E+00  -5.35984338727422E-07   4.14322793520389E-24  -5.35984338727422E-07
      8.45886628273295E-17   6.50000000000000E-01   6.50000000000000E-01   0.00000000000000E+00   0.00000000000000E+00
      5.35984339493350E-07   2.57556997712305E-21   5.35984339493352E-07   3.18461547545314E-16
      1.16666666666667E-01
      7.58333333333333E-02   7.58333333333333E-02   0.00000000000000E+00   0.00000000000000E+00   0.00000000000000E+00
      0.00000000000000E+00   0.00000000000000E+00  -3.93774333476800E-16   0.00000000000000E+00   0.00000000000000E+00
      0.00000000000000E+00   0.00000000000000E+00  -7.73173101397589E-07   1.99577347092895E-24  -7.73173101397589E-07
      8.04759649701955E-17   6.50000000000000E-01   6.50000000000000E-01   0.00000000000000E+00   0.00000000000000E+00
      7.73173102203202E-07   2.97116747293538E-21   7.73173102203205E-07   3.14742405605362E-16
      1.33333333333333E-01
      8.66666666666667E-02   8.66666666666667E-02   0.00000000000000E+00   0.00000000000000E+00   0.00000000000000E+00
      0.00000000000000E+00   0.00000000000000E+00  -3.85844015146264E-16   0.00000000000000E+00   0.00000000000000E+00
      0.00000000000000E+00   0.00000000000000E+00  -1.11306598972088E-06   3.34235348260992E-24  -1.11306598972088E-06
      7.63533445639784E-17   6.50000000000000E-01   6.50000000000000E-01   0.00000000000000E+00   0.00000000000000E+00
      1.11306599047700E-06   2.84561897755205E-21   1.11306599047700E-06   3.11019797192687E-16
      1.50000000000000E-01
      9.75000000000000E-02   9.75000000000000E-02   0.00000000000000E+00   0.00000000000000E+00   0.00000000000000E+00
      0.00000000000000E+00   0.00000000000000E+00  -3.77874221006790E-16   0.00000000000000E+00   0.00000000000000E+00
      0.00000000000000E+00   0.00000000000000E+00  -1.59847506641840E-06   4.80519237310888E-24  -1.59847506641840E-06
      7.22216142836188E-17   6.50000000000000E-01   6.50000000000000E-01   0.00000000000000E+00   0.00000000000000E+00
      1.59847506701291E-06   1.92446434651345E-21   1.59847506701291E-06   3.07293805731376E-16
      1.66666666666667E-01
      1.08333333333333E-01   1.08333333333333E-01   0.00000000000000E+00   0.00000000000000E+00   0.00000000000000E+00
      0.00000000000000E+00   0.00000000000000E+00  -3.69857599318851E-16   0.00000000000000E+00   0.00000000000000E+00
      0.00000000000000E+00   0.00000000000000E+00  -2.28878483274632E-06   2.43326984463621E-24  -2.28878483274632E-06
      6.80819262640226E-17   6.50000000000000E-01   6.50000000000000E-01   0.00000000000000E+00   0.00000000000000E+00
      2.28878483345147E-06   7.89224335217728E-22   2.28878483345147E-06   3.03564556574394E-16
      1.83333333333333E-01
      1.19166666666667E-01   1.19166666666667E-01   0.00000000000000E+00   0.00000000000000E+00   0.00000000000000E+00
      0.00000000000000E+00   0.00000000000000E+00  -3.61784676979376E-16   0.00000000000000E+00   0.00000000000000E+00
      0.00000000000000E+00   0.00000000000000E+00  -3.26537200622482E-06  -6.58680864247815E-25  -3.26537200622482E-06
      6.39358455098321E-17   6.50000000000000E-01   6.50000000000000E-01   0.00000000000000E+00   0.00000000000000E+00
      3.26537201045453E-06   1.70055171853131E-22   3.26537201045453E-06   2.99832229572335E-16
      2.00000000000000E-01
      1.30000000000000E-01   1.30000000000000E-01   0.00000000000000E+00   0.00000000000000E+00   0.00000000000000E+00
      0.00000000000000E+00   0.00000000000000E+00  -3.53643355136812E-16   0.00000000000000E+00   0.00000000000000E+00
      0.00000000000000E+00   0.00000000000000E+00  -4.63802691875530E-06  -6.44117190741636E-25  -4.63802691875530E-06
      5.97854231001781E-17   6.50000000000000E-01   6.50000000000000E-01   0.00000000000000E+00   0.00000000000000E+00
      4.63802693351234E-06   1.43448663386922E-23   4.63802693351234E-06   2.96097072290641E-16
      2.16666666666667E-01
      1.40833333333333E-01   1.40833333333333E-01   0.00000000000000E+00   0.00000000000000E+00   0.00000000000000E+00
      0.00000000000000E+00   0.00000000000000E+00  -3.45418402383881E-16   0.00000000000000E+00   0.00000000000000E+00
      0.00000000000000E+00   0.00000000000000E+00  -6.55196456263725E-06   9.89266046751055E-25  -6.55196456263725E-06
      5.56332578778643E-17   6.50000000000000E-01   6.50000000000000E-01   0.00000000000000E+00   0.00000000000000E+00
      6.55196460384771E-06   8.79507622114612E-25   6.55196460384771E-06   2.92359412617185E-16
      2.33333333333333E-01
      1.51666666666667E-01   1.51666666666667E-01   0.00000000000000E+00   0.00000000000000E+00   0.00000000000000E+00
      0.00000000000000E+00   0.00000000000000E+00  -3.37091041353590E-16   0.00000000000000E+00   0.00000000000000E+00
      0.00000000000000E+00   0.00000000000000E+00  -9.19450874002059E-06   2.75484729869298E-24  -9.19450874002059E-06
      5.14825294598183E-17   6.50000000000000E-01   6.50000000000000E-01   0.00000000000000E+00   0.00000000000000E+00
      9.19450884454159E-06   1.39781008511106E-24   9.19450884454159E-06   2.88619669603375E-16
      2.50000000000000E-01
      1.62500000000000E-01   1.62500000000000E-01   0.00000000000000E+00   0.00000000000000E+00   0.00000000000000E+00
      0.00000000000000E+00   0.00000000000000E+00  -3.28638768325900E-16   0.00000000000000E+00   0.00000000000000E+00
      0.00000000000000E+00   0.00000000000000E+00  -1.27999161961663E-05   3.74622340877269E-24  -1.27999161961663E-05
      4.73369806673443E-17   6.50000000000000E-01   6.50000000000000E-01   0.00000000000000E+00   0.00000000000000E+00
      1.27999164341412E-05   1.63296500781895E-24   1.27999164341412E-05   2.84878358790750E-16
      2.66666666666667E-01
      1.73333333333333E-01   1.73333333333333E-01   0.00000000000000E+00   0.00000000000000E+00   0.00000000000000E+00
      0.00000000000000E+00   0.00000000000000E+00  -3.20035570309735E-16   0.00000000000000E+00   0.00000000000000E+00
      0.00000000000000E+00   0.00000000000000E+00  -1.76503245491722E-05   3.30296189168510E-24  -1.76503245491722E-05
      4.32008273473309E-17   6.50000000000000E-01   6.50000000000000E-01   0.00000000000000E+00   0.00000000000000E+00
      1.76503250365883E-05   1.63548714462274E-24   1.76503250365883E-05   2.81136086968415E-16
      2.83333333333333E-01
      1.84166666666667E-01   1.84166666666667E-01   0.00000000000000E+00   0.00000000000000E+00   0.00000000000000E+00
      0.00000000000000E+00   0.00000000000000E+00  -3.11252672578766E-16   0.00000000000000E+00   0.00000000000000E+00
      0.00000000000000E+00   0.00000000000000E+00  -2.40709423762163E-05   4.02183828349774E-25  -2.40709423762163E-05
      3.90785836870165E-17   6.50000000000000E-01   6.50000000000000E-01   0.00000000000000E+00   0.00000000000000E+00
      2.40709432686716E-05   1.54215980180497E-24   2.40709432686716E-05   2.77393533008903E-16
      3.00000000000000E-01
      1.95000000000000E-01   1.95000000000000E-01   0.00000000000000E+00   0.00000000000000E+00   0.00000000000000E+00
      0.00000000000000E+00   0.00000000000000E+00  -3.02259811145930E-16   0.00000000000000E+00   0.00000000000000E+00
      0.00000000000000E+00   0.00000000000000E+00  -3.24190137722226E-05   3.56530232908287E-25  -3.24190137722226E-05
      3.49748141285979E-17   6.50000000000000E-01   6.50000000000000E-01   0.00000000000000E+00   0.00000000000000E+00
      3.24190152330570E-05   1.30438154840716E-24   3.24190152330570E-05   2.73651415465591E-16
      3.16666666666667E-01
      2.05833333333333E-01   2.05833333333333E-01   0.00000000000000E+00   0.00000000000000E+00   0.00000000000000E+00
      0.00000000000000E+00   0.00000000000000E+00  -2.93026743028248E-16   0.00000000000000E+00   0.00000000000000E+00
      0.00000000000000E+00   0.00000000000000E+00  -4.30695006102476E-05  -1.49438808700980E-24  -4.30695006102476E-05
      3.08938605043938E-17   6.50000000000000E-01   6.50000000000000E-01   0.00000000000000E+00   0.00000000000000E+00
      4.30695027377661E-05   8.82019647351640E-25   4.30695027377661E-05   2.69910454880529E-16
      3.33333333333333E-01
      2.16666666666667E-01   2.16666666666667E-01   0.00000000000000E+00   0.00000000000000E+00   0.00000000000000E+00
      0.00000000000000E+00   0.00000000000000E+00  -2.83524176755143E-16   0.00000000000000E+00   0.00000000000000E+00
      0.00000000000000E+00   0.00000000000000E+00  -5.64075777038161E-05  -2.81083206549590E-24  -5.64075777038161E-05
      2.68396450809963E-17   6.50000000000000E-01   6.50000000000000E-01   0.00000000000000E+00   0.00000000000000E+00
      5.64075804897450E-05   3.94013074345821E-25   5.64075804897450E-05   2.66171351560661E-16
      3.50000000000000E-01
      2.27500000000000E-01   2.27500000000000E-01   0.00000000000000E+00   0.00000000000000E+00   0.00000000000000E+00
      0.00000000000000E+00   0.00000000000000E+00  -2.73721560326641E-16   0.00000000000000E+00   0.00000000000000E+00
      0.00000000000000E+00   0.00000000000000E+00  -7.28626503211048E-05   1.13477884222759E-25  -7.28626503211048E-05
      2.28158011471657E-17   6.50000000000000E-01   6.50000000000000E-01   0.00000000000000E+00   0.00000000000000E+00
      7.28626537007157E-05   6.52328489225738E-26   7.28626537007157E-05   2.62434843664244E-16
      3.66666666666667E-01
      2.38333333333333E-01   2.38333333333333E-01   0.00000000000000E+00   0.00000000000000E+00   0.00000000000000E+00
      0.00000000000000E+00   0.00000000000000E+00  -2.63610298461646E-16   0.00000000000000E+00   0.00000000000000E+00
      0.00000000000000E+00   0.00000000000000E+00  -9.25778049347934E-05  -4.40470161400717E-24  -9.25778049347934E-05
      1.88246548182316E-17   6.50000000000000E-01   6.50000000000000E-01   0.00000000000000E+00   0.00000000000000E+00
      9.25778108332402E-05   1.01287343616879E-25   9.25778108332402E-05   2.58701015010709E-16
      3.83333333333333E-01
      2.49166666666667E-01   2.49166666666667E-01   0.00000000000000E+00   0.00000000000000E+00   0.00000000000000E+00
      0.00000000000000E+00   0.00000000000000E+00  -2.53349257364427E-16   0.00000000000000E+00   0.00000000000000E+00
      0.00000000000000E+00   0.00000000000000E+00  -1.13542458750996E-04  -1.43209411411543E-22  -1.13542458750996E-04
      1.48486038401577E-17   6.50000000000000E-01   6.50000000000000E-01   0.00000000000000E+00   0.00000000000000E+00
      1.13542460252425E-04  -3.89837563167803E-25   1.13542460252425E-04   2.54965638295910E-16
      4.00000000000000E-01
      2.60000000000000E-01   2.60000000000000E-01   0.00000000000000E+00   0.00000000000000E+00   0.00000000000000E+00
      0.00000000000000E+00   0.00000000000000E+00  -2.42821237847412E-16   0.00000000000000E+00   0.00000000000000E+00
      0.00000000000000E+00   0.00000000000000E+00  -1.37130588356918E-04  -2.38051250988256E-24  -1.37130588356918E-04
      1.09008023096538E-17   6.50000000000000E-01   6.50000000000000E-01   0.00000000000000E+00   0.00000000000000E+00
      1.37130591397129E-04  -2.51007807511562E-26   1.37130591397129E-04   2.51231592089707E-16
      4.16666666666667E-01
      2.70833333333333E-01   2.70833333333333E-01   0.00000000000000E+00   0.00000000000000E+00   0.00000000000000E+00
      0.00000000000000E+00   0.00000000000000E+00  -2.32019391362966E-16   0.00000000000000E+00   0.00000000000000E+00
      0.00000000000000E+00   0.00000000000000E+00  -1.63439827208780E-04   4.11894995885156E-26  -1.63439827208780E-04
      6.98205585425102E-18   6.50000000000000E-01   6.50000000000000E-01   0.00000000000000E+00   0.00000000000000E+00
      1.63439829760817E-04  -4.42535873862689E-27   1.63439829760817E-04   2.47498936586602E-16
      4.33333333333333E-01
      2.81666666666667E-01   2.81666666666667E-01   0.00000000000000E+00   0.00000000000000E+00   0.00000000000000E+00
      0.00000000000000E+00   0.00000000000000E+00  -2.20952724401438E-16   0.00000000000000E+00   0.00000000000000E+00
      0.00000000000000E+00   0.00000000000000E+00  -1.92391641162858E-04  -9.23659714657067E-25  -1.92391641162858E-04
      3.09064847248317E-18   6.50000000000000E-01   6.50000000000000E-01   0.00000000000000E+00   0.00000000000000E+00
      1.92391642783910E-04  -4.73648744106980E-28   1.92391642783910E-04   2.43767344312654E-16
      4.50000000000000E-01
      2.92500000000000E-01   2.92500000000000E-01   0.00000000000000E+00   0.00000000000000E+00   0.00000000000000E+00
      0.00000000000000E+00   0.00000000000000E+00  -2.09631960812423E-16   0.00000000000000E+00   0.00000000000000E+00
      0.00000000000000E+00   0.00000000000000E+00  -2.23876101547725E-04  -8.01966072008263E-25  -2.23876101547725E-04
     -7.75153178302403E-19   6.50000000000000E-01   6.50000000000000E-01   0.00000000000000E+00   0.00000000000000E+00
      2.23876102618392E-04   5.38056829196468E-28   2.23876102618392E-04   2.40036427599224E-16
      4.66666666666667E-01
      3.03333333333333E-01   3.03333333333333E-01   0.00000000000000E+00   0.00000000000000E+00   0.00000000000000E+00
      0.00000000000000E+00   0.00000000000000E+00  -1.98069004240995E-16   0.00000000000000E+00   0.00000000000000E+00
      0.00000000000000E+00   0.00000000000000E+00  -2.57764560603867E-04  -9.36888435134507E-25  -2.57764560603867E-04
     -4.61705050476159E-18   6.50000000000000E-01   6.50000000000000E-01   0.00000000000000E+00   0.00000000000000E+00
      2.57764561346743E-04   5.31405190875357E-28   2.57764561346743E-04   2.36305765271406E-16
      4.83333333333333E-01
      3.14166666666667E-01   3.14166666666667E-01   0.00000000000000E+00   0.00000000000000E+00   0.00000000000000E+00
      0.00000000000000E+00   0.00000000000000E+00  -1.86276155477385E-16   0.00000000000000E+00   0.00000000000000E+00
      0.00000000000000E+00   0.00000000000000E+00  -2.93922043206656E-04  -1.64243450903488E-24  -2.93922043206656E-04
     -8.43674198607724E-18   6.50000000000000E-01   6.50000000000000E-01   0.00000000000000E+00   0.00000000000000E+00
      2.93922043742951E-04   3.46410745692177E-28   2.93922043742951E-04   2.32574917293725E-16
      5.00000000000000E-01
      3.25000000000000E-01   3.25000000000000E-01   0.00000000000000E+00   0.00000000000000E+00   0.00000000000000E+00
      0.00000000000000E+00   0.00000000000000E+00  -1.74265269559024E-16   0.00000000000000E+00   0.00000000000000E+00
      0.00000000000000E+00   0.00000000000000E+00  -3.32211864134099E-04  -1.75490408751016E-24  -3.32211864134099E-04
     -1.22358452690097E-17   6.50000000000000E-01   6.50000000000000E-01   0.00000000000000E+00   0.00000000000000E+00
      3.32211864549234E-04   2.01754082158271E-28   3.32211864549234E-04   2.28843459733950E-16
      5.16666666666667E-01
      3.35833333333333E-01   3.35833333333333E-01   0.00000000000000E+00   0.00000000000000E+00   0.00000000000000E+00
      0.00000000000000E+00   0.00000000000000E+00  -1.62047743429371E-16   0.00000000000000E+00   0.00000000000000E+00
      0.00000000000000E+00   0.00000000000000E+00  -3.72500838168493E-04  -1.38677869956899E-24  -3.72500838168493E-04
     -1.60158691819165E-17   6.50000000000000E-01   6.50000000000000E-01   0.00000000000000E+00   0.00000000000000E+00
      3.72500838480926E-04   1.12033334214514E-28   3.72500838480926E-04   2.25110991813489E-16
      5.33333333333333E-01
      3.46666666666667E-01   3.46666666666667E-01   0.00000000000000E+00   0.00000000000000E+00   0.00000000000000E+00
      0.00000000000000E+00   0.00000000000000E+00  -1.49634537531756E-16   0.00000000000000E+00   0.00000000000000E+00
      0.00000000000000E+00   0.00000000000000E+00  -4.14662061643599E-04  -1.09893914610069E-24  -4.14662061643599E-04
     -1.97782249102013E-17   6.50000000000000E-01   6.50000000000000E-01   0.00000000000000E+00   0.00000000000000E+00
      4.14662110820623E-04   6.02777827198156E-29   4.14662110820623E-04   2.21377121020304E-16
      5.50000000000000E-01
      3.57500000000000E-01   3.57500000000000E-01   0.00000000000000E+00   0.00000000000000E+00   0.00000000000000E+00
      0.00000000000000E+00   0.00000000000000E+00  -1.37036115614065E-16   0.00000000000000E+00   0.00000000000000E+00
      0.00000000000000E+00   0.00000000000000E+00  -4.58577036660414E-04  -9.82828845419251E-26  -4.58577036660414E-04
     -2.35242459650280E-17   6.50000000000000E-01   6.50000000000000E-01   0.00000000000000E+00   0.00000000000000E+00
      4.58577036844516E-04   3.19089544821493E-29   4.58577036844516E-04   2.17641461870057E-16
      5.66666666666667E-01
      3.68333333333333E-01   3.68333333333333E-01   0.00000000000000E+00   0.00000000000000E+00   0.00000000000000E+00
      0.00000000000000E+00   0.00000000000000E+00  -1.24261839712821E-16   0.00000000000000E+00   0.00000000000000E+00
      0.00000000000000E+00   0.00000000000000E+00  -5.04131664078011E-04  -5.98933389025899E-26  -5.04131664078011E-04
     -2.72551447689740E-17   6.50000000000000E-01   6.50000000000000E-01   0.00000000000000E+00   0.00000000000000E+00
      5.04131664227167E-04   1.65093838054632E-29   5.04131664227167E-04   2.13903699903219E-16
      5.83333333333333E-01
      3.79166666666667E-01   3.79166666666667E-01   0.00000000000000E+00   0.00000000000000E+00   0.00000000000000E+00
      0.00000000000000E+00   0.00000000000000E+00  -1.11320907273898E-16   0.00000000000000E+00   0.00000000000000E+00
      0.00000000000000E+00   0.00000000000000E+00  -5.51220416118933E-04  -8.67812112660030E-26  -5.51220416118933E-04
     -3.09720475307377E-17   6.50000000000000E-01   6.50000000000000E-01   0.00000000000000E+00   0.00000000000000E+00
      5.51220416246303E-04   8.21677281267902E-30   5.51220416246303E-04   2.10163508722465E-16
      6.00000000000000E-01
      3.90000000000000E-01   3.90000000000000E-01   0.00000000000000E+00   0.00000000000000E+00   0.00000000000000E+00
      0.00000000000000E+00   0.00000000000000E+00  -9.82218400140896E-17   0.00000000000000E+00   0.00000000000000E+00
      0.00000000000000E+00   0.00000000000000E+00  -5.99744744062710E-04  -5.61969983075118E-26  -5.99744744062710E-04
     -3.46760199754621E-17   6.50000000000000E-01   6.50000000000000E-01   0.00000000000000E+00   0.00000000000000E+00
      5.99744744164233E-04   4.31756992170316E-30   5.99744744164233E-04   2.06420590696694E-16
      6.16666666666667E-01
      4.00833333333333E-01   4.00833333333333E-01   0.00000000000000E+00   0.00000000000000E+00   0.00000000000000E+00
      0.00000000000000E+00   0.00000000000000E+00  -8.49727061374606E-17   0.00000000000000E+00   0.00000000000000E+00
      0.00000000000000E+00   0.00000000000000E+00  -6.49611595537585E-04  -4.67586643525341E-26  -6.49611595537585E-04
     -3.83680337065420E-17   6.50000000000000E-01   6.50000000000000E-01   0.00000000000000E+00   0.00000000000000E+00
      6.49611595624840E-04   2.05662706719200E-30   6.49611595624840E-04   2.02674675120356E-16
      6.33333333333334E-01
      4.11666666666667E-01   4.11666666666667E-01   0.00000000000000E+00   0.00000000000000E+00   0.00000000000000E+00
      0.00000000000000E+00   0.00000000000000E+00  -7.15810759617204E-17   0.00000000000000E+00   0.00000000000000E+00
      0.00000000000000E+00   0.00000000000000E+00  -7.00733759070017E-04  -2.72923698795127E-26  -7.00733759070017E-04
     -4.20490039292506E-17   6.50000000000000E-01   6.50000000000000E-01   0.00000000000000E+00   0.00000000000000E+00
      7.00733759144052E-04   8.57253649312949E-31   7.00733759144052E-04   1.98925515092170E-16
      6.50000000000000E-01
      4.22500000000000E-01   4.22500000000000E-01   0.00000000000000E+00   0.00000000000000E+00   0.00000000000000E+00
      0.00000000000000E+00   0.00000000000000E+00  -5.80540430357742E-17   0.00000000000000E+00   0.00000000000000E+00
      0.00000000000000E+00   0.00000000000000E+00  -7.53029681141638E-04  -1.37553494526943E-26  -7.53029681141638E-04
     -4.57198026487922E-17   6.50000000000000E-01   6.50000000000000E-01   0.00000000000000E+00   0.00000000000000E+00
      7.53029681205449E-04   3.48679420516807E-31   7.53029681205449E-04   1.95172888845387E-16
      6.66666666666667E-01
      4.33333333333334E-01   4.33333333333334E-01   0.00000000000000E+00   0.00000000000000E+00   0.00000000000000E+00
      0.00000000000000E+00   0.00000000000000E+00  -4.43984433846945E-17   0.00000000000000E+00   0.00000000000000E+00
      0.00000000000000E+00   0.00000000000000E+00  -8.06421981063038E-04  -6.98691491479626E-27  -8.06421981063038E-04
     -4.93812258632562E-17   6.50000000000000E-01   6.50000000000000E-01   0.00000000000000E+00   0.00000000000000E+00
      8.06421981119575E-04   8.75195541328683E-32   8.06421981119575E-04   1.91416593091254E-16
      6.83333333333334E-01
      4.44166666666667E-01   4.44166666666667E-01   0.00000000000000E+00   0.00000000000000E+00   0.00000000000000E+00
      0.00000000000000E+00   0.00000000000000E+00  -3.06206602641786E-17   0.00000000000000E+00   0.00000000000000E+00
      0.00000000000000E+00   0.00000000000000E+00  -8.60838444723107E-04  -1.19041418734766E-27  -8.60838444723107E-04
     -5.30340475985493E-17   6.50000000000000E-01   6.50000000000000E-01   0.00000000000000E+00   0.00000000000000E+00
      8.60838444773271E-04  -1.63196112137063E-32   8.60838444773271E-04   1.87656443842741E-16
      7.00000000000001E-01
      4.55000000000000E-01   4.55000000000000E-01   0.00000000000000E+00   0.00000000000000E+00   0.00000000000000E+00
      0.00000000000000E+00   0.00000000000000E+00  -1.67267781559304E-17   0.00000000000000E+00   0.00000000000000E+00
      0.00000000000000E+00   0.00000000000000E+00  -9.16210490531519E-04  -9.89520688295731E-27  -9.16210490531519E-04
     -5.66789849795475E-17   6.50000000000000E-01   6.50000000000000E-01   0.00000000000000E+00   0.00000000000000E+00
      9.16210490578312E-04  -8.17100363720077E-32   9.16210490578312E-04   1.83892282861675E-16
      7.16666666666667E-01
      4.65833333333334E-01   4.65833333333334E-01   0.00000000000000E+00   0.00000000000000E+00   0.00000000000000E+00
      0.00000000000000E+00   0.00000000000000E+00  -2.72242596853191E-18   0.00000000000000E+00   0.00000000000000E+00
      0.00000000000000E+00   0.00000000000000E+00  -9.72472673647592E-04  -1.88859956180699E-27  -9.72472673647592E-04
     -6.03167067066188E-17   6.50000000000000E-01   6.50000000000000E-01   0.00000000000000E+00   0.00000000000000E+00
      9.72472673686324E-04  -2.80983103015251E-32   9.72472673686324E-04   1.80124007197989E-16
      7.33333333333334E-01
      4.76666666666667E-01   4.76666666666667E-01   0.00000000000000E+00   0.00000000000000E+00   0.00000000000000E+00
      0.00000000000000E+00   0.00000000000000E+00   1.13869427734326E-17   0.00000000000000E+00   0.00000000000000E+00
      0.00000000000000E+00   0.00000000000000E+00  -1.02956369042277E-03  -3.28350176565251E-29  -1.02956369042277E-03
     -6.39478511498696E-17   6.50000000000000E-01   6.50000000000000E-01   0.00000000000000E+00   0.00000000000000E+00
      1.02956369045710E-03  -2.64394374380508E-32   1.02956369045710E-03   1.76351522067268E-16
      7.50000000000001E-01
      4.87500000000000E-01   4.87500000000000E-01   0.00000000000000E+00   0.00000000000000E+00   0.00000000000000E+00
      0.00000000000000E+00   0.00000000000000E+00   2.55957772872403E-17   0.00000000000000E+00   0.00000000000000E+00
      0.00000000000000E+00   0.00000000000000E+00  -1.08742664461639E-03  -2.45587159582496E-27  -1.08742664461639E-03
     -6.75730288314123E-17   6.50000000000000E-01   6.50000000000000E-01   0.00000000000000E+00   0.00000000000000E+00
      1.08742664464696E-03  -2.67622948446308E-32   1.08742664464696E-03   1.72574637752607E-16
      7.66666666666667E-01
      4.98333333333334E-01   4.98333333333334E-01   0.00000000000000E+00   0.00000000000000E+00   0.00000000000000E+00
      0.00000000000000E+00   0.00000000000000E+00   3.98992849741532E-17   0.00000000000000E+00   0.00000000000000E+00
      0.00000000000000E+00   0.00000000000000E+00  -1.14600636435820E-03  -2.15056623434361E-28  -1.14600636435820E-03
     -7.11928073230158E-17   6.50000000000000E-01   6.50000000000000E-01   0.00000000000000E+00   0.00000000000000E+00
      1.14600636438584E-03  -1.94997407055392E-32   1.14600636438584E-03   1.68793297057906E-16
      7.83333333333334E-01
      5.09166666666667E-01   5.09166666666667E-01   0.00000000000000E+00   0.00000000000000E+00   0.00000000000000E+00
      0.00000000000000E+00   0.00000000000000E+00   5.42930821866415E-17   0.00000000000000E+00   0.00000000000000E+00
      0.00000000000000E+00   0.00000000000000E+00  -1.20525034550135E-03   2.12426017735631E-29  -1.20525034550135E-03
     -7.48077204246361E-17   6.50000000000000E-01   6.50000000000000E-01   0.00000000000000E+00   0.00000000000000E+00
      1.20525034552606E-03  -1.44016376990361E-32   1.20525034552606E-03   1.65007531968368E-16
      8.00000000000001E-01
      5.20000000000001E-01   5.20000000000001E-01   0.00000000000000E+00   0.00000000000000E+00   0.00000000000000E+00
      0.00000000000000E+00   0.00000000000000E+00   6.87725446708022E-17   0.00000000000000E+00   0.00000000000000E+00