DF-ISE text

Info {
  version   = 1.0
  type      = xyplot
  datasets  = [
    "time"
    "gate OuterVoltage" "gate InnerVoltage" "gate QuasiFermiPotential" "gate DisplacementCurrent" "gate eCurrent"
    "gate hCurrent" "gate TotalCurrent" "gate Charge" "source OuterVoltage" "source InnerVoltage"
    "source QuasiFermiPotential" "source DisplacementCurrent" "source eCurrent" "source hCurrent" "source TotalCurrent"
    "source Charge" "drain OuterVoltage" "drain InnerVoltage" "drain QuasiFermiPotential" "drain DisplacementCurrent"
    "drain eCurrent" "drain hCurrent" "drain TotalCurrent" "drain Charge" ]
  functions = [
    Time
    OuterVoltage InnerVoltage QuasiFermiPotential DisplacementCurrent eCurrent
    hCurrent TotalCurrent Charge OuterVoltage InnerVoltage
    QuasiFermiPotential DisplacementCurrent eCurrent hCurrent TotalCurrent
    Charge OuterVoltage InnerVoltage QuasiFermiPotential DisplacementCurrent
    eCurrent hCurrent TotalCurrent Charge ]
}

Data {
      0.00000000000000E+00
      0.00000000000000E+00   0.00000000000000E+00   0.00000000000000E+00   0.00000000000000E+00   0.00000000000000E+00
      0.00000000000000E+00   0.00000000000000E+00   2.16713787499794E-16   0.00000000000000E+00   0.00000000000000E+00
      0.00000000000000E+00   0.00000000000000E+00   1.14253298762530E-18  -1.87905062040873E-18  -7.36517632783434E-19
     -1.09002059110818E-16   0.00000000000000E+00   0.00000000000000E+00   0.00000000000000E+00   0.00000000000000E+00
      2.04149400797020E-19  -2.25853850588797E-19  -2.17044497917764E-20  -1.08931984060138E-16
      0.00000000000000E+00
      0.00000000000000E+00   0.00000000000000E+00   0.00000000000000E+00   0.00000000000000E+00   0.00000000000000E+00
      0.00000000000000E+00   0.00000000000000E+00   2.16713755319526E-16   0.00000000000000E+00   0.00000000000000E+00
      0.00000000000000E+00   0.00000000000000E+00  -7.59944920812343E-17   6.77682038650645E-17  -8.22628821616979E-18
     -1.09002042910520E-16   0.00000000000000E+00   0.00000000000000E+00   0.00000000000000E+00   0.00000000000000E+00
     -1.14497975077315E-16   1.13683755768865E-16  -8.14219308449672E-19  -1.08931968121124E-16
      0.00000000000000E+00
      0.00000000000000E+00   0.00000000000000E+00   0.00000000000000E+00   0.00000000000000E+00   0.00000000000000E+00
      0.00000000000000E+00   0.00000000000000E+00   2.16713755319496E-16   0.00000000000000E+00   0.00000000000000E+00
      0.00000000000000E+00   0.00000000000000E+00  -5.94698228598177E-22   1.98568152578325E-20   1.92621170292343E-20
     -1.09002042910504E-16   0.00000000000000E+00   0.00000000000000E+00   0.00000000000000E+00   0.00000000000000E+00
      1.90100108634384E-18  -1.90224169103709E-18  -1.24060469325216E-21  -1.08931968121109E-16
      1.00000000000000E-03
      0.00000000000000E+00   0.00000000000000E+00   0.00000000000000E+00   0.00000000000000E+00   0.00000000000000E+00
      0.00000000000000E+00   0.00000000000000E+00   2.17029968046975E-16   0.00000000000000E+00   0.00000000000000E+00
      0.00000000000000E+00   0.00000000000000E+00   1.60708319541580E-09  -9.96687113138162E-18   1.60708318544893E-09
     -1.09001545215003E-16  -8.00000000000000E-04  -8.00000000000000E-04   0.00000000000000E+00   0.00000000000000E+00
     -1.60708414118587E-09   1.63393853980377E-13  -1.60692074733189E-09  -1.09248214499070E-16
      2.86666666666667E-03
      0.00000000000000E+00   0.00000000000000E+00   0.00000000000000E+00   0.00000000000000E+00   0.00000000000000E+00
      0.00000000000000E+00   0.00000000000000E+00   2.17619981340585E-16   0.00000000000000E+00   0.00000000000000E+00
      0.00000000000000E+00   0.00000000000000E+00   4.38732442603540E-09  -2.22289013681410E-15   4.38732220314526E-09
     -1.09000617232765E-16  -2.29333333333333E-03  -2.29333333333333E-03   0.00000000000000E+00   0.00000000000000E+00
     -4.38732439362341E-09  -3.95743688975127E-16  -4.38732478936709E-09  -1.09838317878601E-16
      6.60000000000000E-03
      0.00000000000000E+00   0.00000000000000E+00   0.00000000000000E+00   0.00000000000000E+00   0.00000000000000E+00
      0.00000000000000E+00   0.00000000000000E+00   2.18799042481175E-16   0.00000000000000E+00   0.00000000000000E+00
      0.00000000000000E+00   0.00000000000000E+00   9.17962774530159E-09  -2.42558720955998E-14   9.17960348942949E-09
     -1.08998765351075E-16  -5.28000000000000E-03  -5.28000000000000E-03   0.00000000000000E+00   0.00000000000000E+00
     -9.17963261743837E-09  -5.77394477120734E-15  -9.17963839138314E-09  -1.11017660966590E-16
      1.40666666666667E-02
      0.00000000000000E+00   0.00000000000000E+00   0.00000000000000E+00   0.00000000000000E+00   0.00000000000000E+00
      0.00000000000000E+00   0.00000000000000E+00   2.21153404818644E-16   0.00000000000000E+00   0.00000000000000E+00
      0.00000000000000E+00   0.00000000000000E+00   1.62881381797194E-08   4.03615517142365E-16   1.62881385833349E-08
     -1.08995077639677E-16  -1.12533333333333E-02  -1.12533333333333E-02   0.00000000000000E+00   0.00000000000000E+00
     -1.62881374029006E-08  -1.16509756244723E-15  -1.62881385679981E-08  -1.13372958707473E-16
      2.80044444444444E-02
      0.00000000000000E+00   0.00000000000000E+00   0.00000000000000E+00   0.00000000000000E+00   0.00000000000000E+00
      0.00000000000000E+00   0.00000000000000E+00   2.25535471676089E-16   0.00000000000000E+00   0.00000000000000E+00
      0.00000000000000E+00   0.00000000000000E+00   2.37308230513610E-08   5.58900185368569E-17   2.37308231072510E-08
     -1.08988248291616E-16  -2.24035555555556E-02  -2.24035555555556E-02   0.00000000000000E+00   0.00000000000000E+00
     -2.37308231947205E-08   1.77964964248778E-15  -2.37308214150708E-08  -1.17757880979945E-16
      5.40216296296296E-02
      0.00000000000000E+00   0.00000000000000E+00   0.00000000000000E+00   0.00000000000000E+00   0.00000000000000E+00
      0.00000000000000E+00   0.00000000000000E+00   2.33674997197643E-16   0.00000000000000E+00   0.00000000000000E+00
      0.00000000000000E+00   0.00000000000000E+00   2.84789070221972E-08  -7.26546926663882E-18   2.84789070149317E-08
     -1.08975665814013E-16  -4.32173037037037E-02  -4.32173037037037E-02   0.00000000000000E+00   0.00000000000000E+00
     -2.84789070382040E-08   2.32866966241439E-17  -2.84789070149173E-08  -1.25905474643257E-16
      9.56491259259259E-02
      0.00000000000000E+00   0.00000000000000E+00   0.00000000000000E+00   0.00000000000000E+00   0.00000000000000E+00
      0.00000000000000E+00   0.00000000000000E+00   2.46605426820378E-16   0.00000000000000E+00   0.00000000000000E+00
      0.00000000000000E+00   0.00000000000000E+00   3.05987468962776E-08  -4.88961891956058E-14   3.05986980000884E-08
     -1.08955881604947E-16  -7.65193007407407E-02  -7.65193007407407E-02   0.00000000000000E+00   0.00000000000000E+00
     -3.05986856989128E-08  -1.20712046192963E-14  -3.05986977701175E-08  -1.38852759387903E-16
      1.45649125925926E-01
      0.00000000000000E+00   0.00000000000000E+00   0.00000000000000E+00   0.00000000000000E+00   0.00000000000000E+00
      0.00000000000000E+00   0.00000000000000E+00   2.62016322280678E-16   0.00000000000000E+00   0.00000000000000E+00
      0.00000000000000E+00   0.00000000000000E+00   3.26046889229207E-08   3.15586783581032E-17   3.26046889544794E-08
     -1.08932525254654E-16  -1.16519300740741E-01  -1.16519300740741E-01   0.00000000000000E+00   0.00000000000000E+00
     -3.26046889618814E-08   7.41367813842524E-18  -3.26046889544678E-08  -1.54286253472710E-16
      1.95649125925926E-01
      0.00000000000000E+00   0.00000000000000E+00   0.00000000000000E+00   0.00000000000000E+00   0.00000000000000E+00
      0.00000000000000E+00   0.00000000000000E+00   2.77325758757054E-16   0.00000000000000E+00   0.00000000000000E+00
      0.00000000000000E+00   0.00000000000000E+00   3.45932737065599E-08   2.11752415062580E-15   3.45932758240840E-08
     -1.08909482471206E-16  -1.56519300740741E-01  -1.56519300740741E-01   0.00000000000000E+00   0.00000000000000E+00
     -3.45932778606518E-08   2.68652073029814E-13  -3.45930092085788E-08  -1.69618938088313E-16
      2.45649125925926E-01
      0.00000000000000E+00   0.00000000000000E+00   0.00000000000000E+00   0.00000000000000E+00   0.00000000000000E+00
      0.00000000000000E+00   0.00000000000000E+00   2.92555220172199E-16   0.00000000000000E+00   0.00000000000000E+00
      0.00000000000000E+00   0.00000000000000E+00   3.65769183388463E-08   2.97099898187012E-17   3.65769183685562E-08
     -1.08886661050893E-16  -1.96519300740741E-01  -1.96519300740741E-01   0.00000000000000E+00   0.00000000000000E+00
     -3.65769183570194E-08  -1.15278042602890E-17  -3.65769183685472E-08  -1.84871710357900E-16
      2.95649125925926E-01
      0.00000000000000E+00   0.00000000000000E+00   0.00000000000000E+00   0.00000000000000E+00   0.00000000000000E+00
      0.00000000000000E+00   0.00000000000000E+00   3.07718330364642E-16   0.00000000000000E+00   0.00000000000000E+00
      0.00000000000000E+00   0.00000000000000E+00   3.85632099500342E-08  -3.57716686429094E-18   3.85632099464571E-08
     -1.08864000579997E-16  -2.36519300740741E-01  -2.36519300740741E-01   0.00000000000000E+00   0.00000000000000E+00
     -3.85632099684842E-08  -2.56685184815816E-18  -3.85632099710510E-08  -2.00058045282375E-16
      3.45649125925926E-01
      0.00000000000000E+00   0.00000000000000E+00   0.00000000000000E+00   0.00000000000000E+00   0.00000000000000E+00
      0.00000000000000E+00   0.00000000000000E+00   3.22823129073677E-16   0.00000000000000E+00   0.00000000000000E+00
      0.00000000000000E+00   0.00000000000000E+00   4.05578436962422E-08   1.50246157351472E-18   4.05578436977446E-08
     -1.08841463366389E-16  -2.76519300740741E-01  -2.76519300740741E-01   0.00000000000000E+00   0.00000000000000E+00
     -4.05578437579415E-08   6.02015311829960E-17  -4.05578436977400E-08  -2.15185965897187E-16
      3.95649125925926E-01
      0.00000000000000E+00   0.00000000000000E+00   0.00000000000000E+00   0.00000000000000E+00   0.00000000000000E+00
      0.00000000000000E+00   0.00000000000000E+00   3.37873947845670E-16   0.00000000000000E+00   0.00000000000000E+00
      0.00000000000000E+00   0.00000000000000E+00   4.25648364651389E-08  -2.43220475736470E-17   4.25648364408168E-08
     -1.08819026858553E-16  -3.16519300740741E-01  -3.16519300740741E-01   0.00000000000000E+00   0.00000000000000E+00
     -4.25648364593612E-08   1.85382951562242E-17  -4.25648364408229E-08  -2.30259786306281E-16
      4.45649125925926E-01
      0.00000000000000E+00   0.00000000000000E+00   0.00000000000000E+00   0.00000000000000E+00   0.00000000000000E+00
      0.00000000000000E+00   0.00000000000000E+00   3.52872726658666E-16   0.00000000000000E+00   0.00000000000000E+00
      0.00000000000000E+00   0.00000000000000E+00   4.45867223765862E-08  -2.02844383280671E-16   4.45867221737419E-08
     -1.08796678656407E-16  -3.56519300740741E-01  -3.56519300740741E-01   0.00000000000000E+00   0.00000000000000E+00
     -4.45867262070903E-08   4.18718097848938E-15  -4.45867220199093E-08  -2.45281444191958E-16
      4.95649125925926E-01
      0.00000000000000E+00   0.00000000000000E+00   0.00000000000000E+00   0.00000000000000E+00   0.00000000000000E+00
      0.00000000000000E+00   0.00000000000000E+00   3.67819917556731E-16   0.00000000000000E+00   0.00000000000000E+00
      0.00000000000000E+00   0.00000000000000E+00   4.66251625850611E-08   2.34903595988211E-14   4.66251860754207E-08
     -1.08774412979319E-16  -3.96519300740741E-01  -3.96519300740741E-01   0.00000000000000E+00   0.00000000000000E+00
     -4.66251950276956E-08   1.22862245677564E-14  -4.66251827414710E-08  -2.60251419786383E-16
      5.45649125925926E-01
      0.00000000000000E+00   0.00000000000000E+00   0.00000000000000E+00   0.00000000000000E+00   0.00000000000000E+00
      0.00000000000000E+00   0.00000000000000E+00   3.82715099429346E-16   0.00000000000000E+00   0.00000000000000E+00
      0.00000000000000E+00   0.00000000000000E+00   4.86814300160158E-08   3.03091152776809E-16   4.86814303191070E-08
     -1.08752228141655E-16  -4.36519300740741E-01  -4.36519300740741E-01   0.00000000000000E+00   0.00000000000000E+00
     -4.86814294214798E-08  -8.97680343304724E-16  -4.86814303191601E-08  -2.75169308928653E-16
      5.95649125925926E-01
      0.00000000000000E+00   0.00000000000000E+00   0.00000000000000E+00   0.00000000000000E+00   0.00000000000000E+00
      0.00000000000000E+00   0.00000000000000E+00   3.97557359613268E-16   0.00000000000000E+00   0.00000000000000E+00
      0.00000000000000E+00   0.00000000000000E+00   5.07562757374581E-08   9.11489511287924E-16   5.07562766489476E-08
     -1.08730125017743E-16  -4.76519300740741E-01  -4.76519300740741E-01   0.00000000000000E+00   0.00000000000000E+00
     -5.07562762619095E-08  -3.78827869712140E-16  -5.07562766407373E-08  -2.90034200652111E-16
      6.45649125925926E-01
      0.00000000000000E+00   0.00000000000000E+00   0.00000000000000E+00   0.00000000000000E+00   0.00000000000000E+00
      0.00000000000000E+00   0.00000000000000E+00   4.12345526835567E-16   0.00000000000000E+00   0.00000000000000E+00
      0.00000000000000E+00   0.00000000000000E+00   5.28502393721995E-08   3.29123184253547E-16   5.28502397013227E-08
     -1.08708106122465E-16  -5.16519300740741E-01  -5.16519300740741E-01   0.00000000000000E+00   0.00000000000000E+00
     -5.28502401296710E-08   4.36255349968445E-16  -5.28502396934156E-08  -3.04844920680063E-16
      6.95649125925926E-01
      0.00000000000000E+00   0.00000000000000E+00   0.00000000000000E+00   0.00000000000000E+00   0.00000000000000E+00
      0.00000000000000E+00   0.00000000000000E+00   4.27078315181523E-16   0.00000000000000E+00   0.00000000000000E+00
      0.00000000000000E+00   0.00000000000000E+00   5.49635929109912E-08   7.67300737352734E-16   5.49635936782920E-08
     -1.08686175031251E-16  -5.56519300740741E-01  -5.56519300740741E-01   0.00000000000000E+00   0.00000000000000E+00
     -5.49635937891867E-08   1.12636943989821E-16  -5.49635936765498E-08  -3.19600178699102E-16
      7.45649125925926E-01
      0.00000000000000E+00   0.00000000000000E+00   0.00000000000000E+00   0.00000000000000E+00   0.00000000000000E+00
      0.00000000000000E+00   0.00000000000000E+00   4.41754409709577E-16   0.00000000000000E+00   0.00000000000000E+00
      0.00000000000000E+00   0.00000000000000E+00   5.70964219131889E-08   3.74617211884271E-16   5.70964222878061E-08
     -1.08664336021652E-16  -5.96519300740741E-01  -5.96519300740741E-01   0.00000000000000E+00   0.00000000000000E+00
     -5.70964226793653E-08   3.89911889990216E-16  -5.70964222894534E-08  -3.34298654754313E-16
      7.95649125925926E-01
      0.00000000000000E+00   0.00000000000000E+00   0.00000000000000E+00   0.00000000000000E+00   0.00000000000000E+00
      0.00000000000000E+00   0.00000000000000E+00   4.56372513422846E-16   0.00000000000000E+00   0.00000000000000E+00
      0.00000000000000E+00   0.00000000000000E+00   5.92486533632370E-08  -4.19223717413943E-16   5.92486529440133E-08
     -1.08642593859014E-16  -6.36519300740741E-01  -6.36519300740741E-01   0.00000000000000E+00   0.00000000000000E+00
     -5.92486533001814E-08   3.52404573134040E-16  -5.92486529477768E-08  -3.48939046437165E-16
      8.45649125925926E-01
      0.00000000000000E+00   0.00000000000000E+00   0.00000000000000E+00   0.00000000000000E+00   0.00000000000000E+00
      0.00000000000000E+00   0.00000000000000E+00   4.70931368063044E-16   0.00000000000000E+00   0.00000000000000E+00
      0.00000000000000E+00   0.00000000000000E+00   6.14200783722134E-08   5.43921389167623E-16   6.14200789161348E-08
     -1.08620953679385E-16  -6.76519300740741E-01  -6.76519300740741E-01   0.00000000000000E+00   0.00000000000000E+00
     -6.14200772179091E-08  -1.69791408557670E-15  -6.14200789158232E-08  -3.63520089784416E-16
      8.95649125925926E-01
      0.00000000000000E+00   0.00000000000000E+00   0.00000000000000E+00   0.00000000000000E+00   0.00000000000000E+00
      0.00000000000000E+00   0.00000000000000E+00   4.85429756302974E-16   0.00000000000000E+00   0.00000000000000E+00
      0.00000000000000E+00   0.00000000000000E+00   6.36103716910067E-08  -1.19515457732470E-17   6.36103716790551E-08
     -1.08599420949336E-16  -7.16519300740741E-01  -7.16519300740741E-01   0.00000000000000E+00   0.00000000000000E+00
     -6.36103717043081E-08   2.52333082632812E-17  -6.36103716790748E-08  -3.78040561651868E-16
      9.45649125925926E-01
      0.00000000000000E+00   0.00000000000000E+00   0.00000000000000E+00   0.00000000000000E+00   0.00000000000000E+00
      0.00000000000000E+00   0.00000000000000E+00   4.99866489891221E-16   0.00000000000000E+00   0.00000000000000E+00
      0.00000000000000E+00   0.00000000000000E+00   6.58190854950916E-08  -4.06403184323098E-17   6.58190854544513E-08
     -1.08578001484898E-16  -7.56519300740741E-01  -7.56519300740741E-01   0.00000000000000E+00   0.00000000000000E+00
     -6.58190854706675E-08   1.62109643316525E-17  -6.58190854544565E-08  -3.92499268123516E-16
      9.95649125925926E-01
      0.00000000000000E+00   0.00000000000000E+00   0.00000000000000E+00   0.00000000000000E+00   0.00000000000000E+00
      0.00000000000000E+00   0.00000000000000E+00   5.14240386519438E-16   0.00000000000000E+00   0.00000000000000E+00
      0.00000000000000E+00   0.00000000000000E+00   6.80456588519822E-08  -2.06507011179482E-17   6.80456588313315E-08
     -1.08556701466369E-16  -7.96519300740741E-01  -7.96519300740741E-01   0.00000000000000E+00   0.00000000000000E+00
     -6.80456588486957E-08   1.73873547303529E-17  -6.80456588313083E-08  -4.06895021211921E-16
      1.00000000000000E+00
      0.00000000000000E+00   0.00000000000000E+00   0.00000000000000E+00   0.00000000000000E+00   0.00000000000000E+00
      0.00000000000000E+00   0.00000000000000E+00   5.15488155532211E-16   0.00000000000000E+00   0.00000000000000E+00
      0.00000000000000E+00   0.00000000000000E+00   6.82402329450740E-08  -1.38936572934237E-17   6.82402329311803E-08
     -1.08554853853843E-16  -8.00000000000000E-01  -8.00000000000000E-01   0.00000000000000E+00   0.00000000000000E+00
     -6.82402330505831E-08   1.19412730204831E-16  -6.82402329311703E-08  -4.08144686409519E-16
}
