DF-ISE text

Info {
  version   = 1.0
  type      = xyplot
  datasets  = [
    "time"
    "gate OuterVoltage" "gate InnerVoltage" "gate QuasiFermiPotential" "gate DisplacementCurrent" "gate eCurrent"
    "gate hCurrent" "gate TotalCurrent" "gate Charge" "source OuterVoltage" "source InnerVoltage"
    "source QuasiFermiPotential" "source DisplacementCurrent" "source eCurrent" "source hCurrent" "source TotalCurrent"
    "source Charge" "drain OuterVoltage" "drain InnerVoltage" "drain QuasiFermiPotential" "drain DisplacementCurrent"
    "drain eCurrent" "drain hCurrent" "drain TotalCurrent" "drain Charge" ]
  functions = [
    Time
    OuterVoltage InnerVoltage QuasiFermiPotential DisplacementCurrent eCurrent
    hCurrent TotalCurrent Charge OuterVoltage InnerVoltage
    QuasiFermiPotential DisplacementCurrent eCurrent hCurrent TotalCurrent
    Charge OuterVoltage InnerVoltage QuasiFermiPotential DisplacementCurrent
    eCurrent hCurrent TotalCurrent Charge ]
}

Data {
      0.00000000000000E+00
      0.00000000000000E+00   0.00000000000000E+00   0.00000000000000E+00   0.00000000000000E+00   0.00000000000000E+00
      0.00000000000000E+00   0.00000000000000E+00  -2.19089632575137E-16   0.00000000000000E+00   0.00000000000000E+00
      0.00000000000000E+00   0.00000000000000E+00   3.87044196656745E-20  -1.40043838618796E-31   3.87044196655344E-20
      1.09938936932931E-16   0.00000000000000E+00   0.00000000000000E+00   0.00000000000000E+00   0.00000000000000E+00
      1.17107189189005E-22  -1.20111558865024E-31   1.17107189068893E-22   1.10375128873969E-16
      0.00000000000000E+00
      0.00000000000000E+00   0.00000000000000E+00   0.00000000000000E+00   0.00000000000000E+00   0.00000000000000E+00
      0.00000000000000E+00   0.00000000000000E+00  -2.19089590299976E-16   0.00000000000000E+00   0.00000000000000E+00
      0.00000000000000E+00   0.00000000000000E+00   4.44233610450074E-17   8.55724527184524E-30   4.44233610450160E-17
      1.09938917233202E-16   0.00000000000000E+00   0.00000000000000E+00   0.00000000000000E+00   0.00000000000000E+00
      3.65432451843190E-17  -5.15207038866076E-29   3.65432451842675E-17   1.10375106305282E-16
      0.00000000000000E+00
      0.00000000000000E+00   0.00000000000000E+00   0.00000000000000E+00   0.00000000000000E+00   0.00000000000000E+00
      0.00000000000000E+00   0.00000000000000E+00  -2.19089590299937E-16   0.00000000000000E+00   0.00000000000000E+00
      0.00000000000000E+00   0.00000000000000E+00   1.30040079107638E-20  -4.77383503474954E-34   1.30040079107634E-20
      1.09938917233184E-16   0.00000000000000E+00   0.00000000000000E+00   0.00000000000000E+00   0.00000000000000E+00
     -2.90090639272491E-20  -7.06302250038813E-34  -2.90090639272498E-20   1.10375106305256E-16
      1.00000000000000E-03
      0.00000000000000E+00   0.00000000000000E+00   0.00000000000000E+00   0.00000000000000E+00   0.00000000000000E+00
      0.00000000000000E+00   0.00000000000000E+00  -2.19466023074255E-16   0.00000000000000E+00   0.00000000000000E+00
      0.00000000000000E+00   0.00000000000000E+00  -2.72204707987488E-09  -1.05821902501713E-26  -2.72204707987488E-09
      1.09938374402945E-16   1.00000000000000E-03   1.00000000000000E-03   0.00000000000000E+00   0.00000000000000E+00
      2.72456348968675E-09   4.58305682853164E-26   2.72456348968675E-09   1.10751528829290E-16
      2.86666666666667E-03
      0.00000000000000E+00   0.00000000000000E+00   0.00000000000000E+00   0.00000000000000E+00   0.00000000000000E+00
      0.00000000000000E+00   0.00000000000000E+00  -2.20168395716439E-16   0.00000000000000E+00   0.00000000000000E+00
      0.00000000000000E+00   0.00000000000000E+00  -7.04947488629126E-09  -4.29032960317986E-26  -7.04947488629126E-09
      1.09937360929087E-16   2.86666666666667E-03   2.86666666666667E-03   0.00000000000000E+00   0.00000000000000E+00
      7.04949873569952E-09  -7.93126883952261E-25   7.04949873569952E-09   1.11453919179529E-16
      6.60000000000000E-03
      0.00000000000000E+00   0.00000000000000E+00   0.00000000000000E+00   0.00000000000000E+00   0.00000000000000E+00
      0.00000000000000E+00   0.00000000000000E+00  -2.21571974530416E-16   0.00000000000000E+00   0.00000000000000E+00
      0.00000000000000E+00   0.00000000000000E+00  -1.33976968825759E-08  -3.91074055956167E-27  -1.33976968825759E-08
      1.09935334356818E-16   6.60000000000000E-03   6.60000000000000E-03   0.00000000000000E+00   0.00000000000000E+00
      1.33976968786538E-08   6.99428424693594E-27   1.33976968786538E-08   1.12857669679063E-16
      1.35688888888889E-02
      0.00000000000000E+00   0.00000000000000E+00   0.00000000000000E+00   0.00000000000000E+00   0.00000000000000E+00
      0.00000000000000E+00   0.00000000000000E+00  -2.24187913431944E-16   0.00000000000000E+00   0.00000000000000E+00
      0.00000000000000E+00   0.00000000000000E+00  -1.99819144090000E-08   2.01816754446902E-26  -1.99819144090000E-08
      1.09931557665971E-16   1.35688888888889E-02   1.35688888888889E-02   0.00000000000000E+00   0.00000000000000E+00
      1.99819141761857E-08   3.82414894677792E-26   1.99819141761857E-08   1.15474367675914E-16
      2.65774814814815E-02
      0.00000000000000E+00   0.00000000000000E+00   0.00000000000000E+00   0.00000000000000E+00   0.00000000000000E+00
      0.00000000000000E+00   0.00000000000000E+00  -2.29057342677971E-16   0.00000000000000E+00   0.00000000000000E+00
      0.00000000000000E+00   0.00000000000000E+00  -2.40722092723678E-08   8.91874198622968E-26  -2.40722092723678E-08
      1.09924543696299E-16   2.65774814814815E-02   2.65774814814815E-02   0.00000000000000E+00   0.00000000000000E+00
      2.40721909305218E-08   1.34706334357934E-25   2.40721909305218E-08   1.20346471976435E-16
      5.08601876543210E-02
      0.00000000000000E+00   0.00000000000000E+00   0.00000000000000E+00   0.00000000000000E+00   0.00000000000000E+00
      0.00000000000000E+00   0.00000000000000E+00  -2.38102550146959E-16   0.00000000000000E+00   0.00000000000000E+00
      0.00000000000000E+00   0.00000000000000E+00  -2.55542238835135E-08   3.28933511015613E-30  -2.55542238835135E-08
      1.09911590076340E-16   5.08601876543210E-02   5.08601876543210E-02   0.00000000000000E+00   0.00000000000000E+00
      2.55542238835776E-08   1.04673075756435E-29   2.55542238835776E-08   1.29399670852364E-16
      8.64748233744856E-02
      0.00000000000000E+00   0.00000000000000E+00   0.00000000000000E+00   0.00000000000000E+00   0.00000000000000E+00
      0.00000000000000E+00   0.00000000000000E+00  -2.51274397275307E-16   0.00000000000000E+00   0.00000000000000E+00
      0.00000000000000E+00   0.00000000000000E+00  -2.69943030230474E-08  -9.62131187923544E-26  -2.69943030230474E-08
      1.09892883377609E-16   8.64748233744856E-02   8.64748233744856E-02   0.00000000000000E+00   0.00000000000000E+00
      2.69943029430567E-08  -4.99681256699932E-26   2.69943029430567E-08   1.42586902411698E-16
      1.36474823374486E-01
      0.00000000000000E+00   0.00000000000000E+00   0.00000000000000E+00   0.00000000000000E+00   0.00000000000000E+00
      0.00000000000000E+00   0.00000000000000E+00  -2.69599766180057E-16   0.00000000000000E+00   0.00000000000000E+00
      0.00000000000000E+00   0.00000000000000E+00  -2.89773464732632E-08  -4.05569335752582E-26  -2.89773464732632E-08
      1.09867116569973E-16   1.36474823374486E-01   1.36474823374486E-01   0.00000000000000E+00   0.00000000000000E+00
      2.89773464732179E-08  -2.70098434371924E-27   2.89773464732179E-08   1.60936615641403E-16
      1.86474823374486E-01
      0.00000000000000E+00   0.00000000000000E+00   0.00000000000000E+00   0.00000000000000E+00   0.00000000000000E+00
      0.00000000000000E+00   0.00000000000000E+00  -2.87754533833440E-16   0.00000000000000E+00   0.00000000000000E+00
      0.00000000000000E+00   0.00000000000000E+00  -3.09301820176068E-08  -5.79563444313516E-26  -3.09301820176068E-08
      1.09841843251768E-16   1.86474823374486E-01   1.86474823374486E-01   0.00000000000000E+00   0.00000000000000E+00
      3.09301820175750E-08  -1.42351531401779E-27   3.09301820175750E-08   1.79116515659446E-16
      2.36474823374486E-01
      0.00000000000000E+00   0.00000000000000E+00   0.00000000000000E+00   0.00000000000000E+00   0.00000000000000E+00
      0.00000000000000E+00   0.00000000000000E+00  -3.05758901650197E-16   0.00000000000000E+00   0.00000000000000E+00
      0.00000000000000E+00   0.00000000000000E+00  -3.28629265590453E-08  -9.14485882132255E-28  -3.28629265590453E-08
      1.09816995653962E-16   2.36474823374486E-01   2.36474823374486E-01   0.00000000000000E+00   0.00000000000000E+00
      3.28629265591179E-08   8.20783414197448E-29   3.28629265591179E-08   1.97145964664205E-16
      2.86474823374486E-01
      0.00000000000000E+00   0.00000000000000E+00   0.00000000000000E+00   0.00000000000000E+00   0.00000000000000E+00
      0.00000000000000E+00   0.00000000000000E+00  -3.23628424273619E-16   0.00000000000000E+00   0.00000000000000E+00
      0.00000000000000E+00   0.00000000000000E+00  -3.47828379871556E-08  -5.46231547210327E-28  -3.47828379871556E-08
      1.09792523016483E-16   2.86474823374486E-01   2.86474823374486E-01   0.00000000000000E+00   0.00000000000000E+00
      3.47828379853021E-08   1.38122396217628E-29   3.47828379853021E-08   2.15040293939310E-16
      3.36474823374486E-01
      0.00000000000000E+00   0.00000000000000E+00   0.00000000000000E+00   0.00000000000000E+00   0.00000000000000E+00
      0.00000000000000E+00   0.00000000000000E+00  -3.41375452995356E-16   0.00000000000000E+00   0.00000000000000E+00
      0.00000000000000E+00   0.00000000000000E+00  -3.66953366843916E-08  -2.16265243140894E-26  -3.66953366843916E-08
      1.09768385660650E-16   3.36474823374486E-01   3.36474823374486E-01   0.00000000000000E+00   0.00000000000000E+00
      3.66953366593449E-08  -1.68513323137439E-20   3.66953366593281E-08   2.32811780582856E-16
      3.86474823374486E-01
      0.00000000000000E+00   0.00000000000000E+00   0.00000000000000E+00   0.00000000000000E+00   0.00000000000000E+00
      0.00000000000000E+00   0.00000000000000E+00  -3.59010007653910E-16   0.00000000000000E+00   0.00000000000000E+00
      0.00000000000000E+00   0.00000000000000E+00  -3.86045889976121E-08  -1.08566829720461E-24  -3.86045889976121E-08
      1.09744551715719E-16   3.86474823374486E-01   3.86474823374486E-01   0.00000000000000E+00   0.00000000000000E+00
      3.86045546621948E-08  -1.76378826459501E-23   3.86045546621947E-08   2.50470489099259E-16
      4.36474823374486E-01
      0.00000000000000E+00   0.00000000000000E+00   0.00000000000000E+00   0.00000000000000E+00   0.00000000000000E+00
      0.00000000000000E+00   0.00000000000000E+00  -3.76540359564940E-16   0.00000000000000E+00   0.00000000000000E+00
      0.00000000000000E+00   0.00000000000000E+00  -4.05138746965598E-08   6.77034743675071E-26  -4.05138746965598E-08
      1.09720995000919E-16   4.36474823374486E-01   4.36474823374486E-01   0.00000000000000E+00   0.00000000000000E+00
      4.05138746637731E-08   1.42975410980369E-23   4.05138746637731E-08   2.68024725860615E-16
      4.86474823374486E-01
      0.00000000000000E+00   0.00000000000000E+00   0.00000000000000E+00   0.00000000000000E+00   0.00000000000000E+00
      0.00000000000000E+00   0.00000000000000E+00  -3.93973420971624E-16   0.00000000000000E+00   0.00000000000000E+00
      0.00000000000000E+00   0.00000000000000E+00  -4.24258216261658E-08   2.45127426223407E-26  -4.24258216261658E-08
      1.09697693693485E-16   4.86474823374486E-01   4.86474823374486E-01   0.00000000000000E+00   0.00000000000000E+00
      4.24258216057354E-08   9.69397116888835E-23   4.24258216057355E-08   2.85481416884242E-16
      5.36474823374486E-01
      0.00000000000000E+00   0.00000000000000E+00   0.00000000000000E+00   0.00000000000000E+00   0.00000000000000E+00
      0.00000000000000E+00   0.00000000000000E+00  -4.11315037012919E-16   0.00000000000000E+00   0.00000000000000E+00
      0.00000000000000E+00   0.00000000000000E+00  -4.43425724466127E-08   1.68207750742105E-25  -4.43425724466127E-08
      1.09674629292880E-16   5.36474823374486E-01   5.36474823374486E-01   0.00000000000000E+00   0.00000000000000E+00
      4.43425624711396E-08  -2.53427470417847E-22   4.43425624711393E-08   3.02846420863983E-16
      5.86474823374486E-01
      0.00000000000000E+00   0.00000000000000E+00   0.00000000000000E+00   0.00000000000000E+00   0.00000000000000E+00
      0.00000000000000E+00   0.00000000000000E+00  -4.28570183925840E-16   0.00000000000000E+00   0.00000000000000E+00
      0.00000000000000E+00   0.00000000000000E+00  -4.62658947693096E-08  -1.75303665254508E-22  -4.62658947693097E-08
      1.09651785968754E-16   5.86474823374486E-01   5.86474823374486E-01   0.00000000000000E+00   0.00000000000000E+00
      4.62658947652197E-08   1.44469326684998E-19   4.62658947653641E-08   3.20124733765405E-16
      6.36474823374486E-01
      0.00000000000000E+00   0.00000000000000E+00   0.00000000000000E+00   0.00000000000000E+00   0.00000000000000E+00
      0.00000000000000E+00   0.00000000000000E+00  -4.45743126993248E-16   0.00000000000000E+00   0.00000000000000E+00
      0.00000000000000E+00   0.00000000000000E+00  -4.81972622922020E-08  -1.66298026003489E-22  -4.81972622922022E-08
      1.09629150079351E-16   6.36474823374486E-01   6.36474823374486E-01   0.00000000000000E+00   0.00000000000000E+00
      4.81972606670787E-08   5.00552935043712E-19   4.81972606675793E-08   3.37320636715091E-16
      6.86474823374486E-01
      0.00000000000000E+00   0.00000000000000E+00   0.00000000000000E+00   0.00000000000000E+00   0.00000000000000E+00
      0.00000000000000E+00   0.00000000000000E+00  -4.62837538411355E-16   0.00000000000000E+00   0.00000000000000E+00
      0.00000000000000E+00   0.00000000000000E+00  -5.01379176319952E-08  -1.58237309549086E-24  -5.01379176319952E-08
      1.09606709716228E-16   6.86474823374486E-01   6.86474823374486E-01   0.00000000000000E+00   0.00000000000000E+00
      5.01379173982805E-08  -3.41357832340596E-22   5.01379173982802E-08   3.54437814332563E-16
      7.36474823374486E-01
      0.00000000000000E+00   0.00000000000000E+00   0.00000000000000E+00   0.00000000000000E+00   0.00000000000000E+00
      0.00000000000000E+00   0.00000000000000E+00  -4.79856587434422E-16   0.00000000000000E+00   0.00000000000000E+00
      0.00000000000000E+00   0.00000000000000E+00  -5.20889199068547E-08  -6.28938528874646E-24  -5.20889199068547E-08
      1.09584454353475E-16   7.36474823374486E-01   7.36474823374486E-01   0.00000000000000E+00   0.00000000000000E+00
      5.20889199062433E-08   7.21643813806830E-20   5.20889199063155E-08   3.71479444756440E-16
      7.86474823374486E-01
      0.00000000000000E+00   0.00000000000000E+00   0.00000000000000E+00   0.00000000000000E+00   0.00000000000000E+00
      0.00000000000000E+00   0.00000000000000E+00  -4.96803015642724E-16   0.00000000000000E+00   0.00000000000000E+00
      0.00000000000000E+00   0.00000000000000E+00  -5.40511736926685E-08  -6.00977722558364E-22  -5.40511736926691E-08
      1.09562374743959E-16   7.86474823374486E-01   7.86474823374486E-01   0.00000000000000E+00   0.00000000000000E+00
      5.40511736909813E-08   3.39302619016883E-18   5.40511736943743E-08   3.88448278819491E-16
      8.36474823374486E-01
      0.00000000000000E+00   0.00000000000000E+00   0.00000000000000E+00   0.00000000000000E+00   0.00000000000000E+00
      0.00000000000000E+00   0.00000000000000E+00  -5.13679195880234E-16   0.00000000000000E+00   0.00000000000000E+00
      0.00000000000000E+00   0.00000000000000E+00  -5.60254530915447E-08  -1.84549189130876E-25  -5.60254530915447E-08
      1.09540462793534E-16   8.36474823374486E-01   8.36474823374486E-01   0.00000000000000E+00   0.00000000000000E+00
      5.60254530914980E-08   5.51459403563979E-22   5.60254530914986E-08   4.05346699542548E-16
      8.86474823374486E-01
      0.00000000000000E+00   0.00000000000000E+00   0.00000000000000E+00   0.00000000000000E+00   0.00000000000000E+00
      0.00000000000000E+00   0.00000000000000E+00  -5.30487182094579E-16   0.00000000000000E+00   0.00000000000000E+00
      0.00000000000000E+00   0.00000000000000E+00  -5.80124438500605E-08  -4.02449608308475E-24  -5.80124438500605E-08
      1.09518710983610E-16   8.86474823374486E-01   8.86474823374486E-01   0.00000000000000E+00   0.00000000000000E+00
      5.80124438499096E-08  -8.20535172220034E-21   5.80124438499014E-08   4.22176767592968E-16
      9.36474823374486E-01
      0.00000000000000E+00   0.00000000000000E+00   0.00000000000000E+00   0.00000000000000E+00   0.00000000000000E+00
      0.00000000000000E+00   0.00000000000000E+00  -5.47228740678285E-16   0.00000000000000E+00   0.00000000000000E+00
      0.00000000000000E+00   0.00000000000000E+00  -6.00127497285783E-08  -9.40537176804710E-23  -6.00127497285784E-08
      1.09497112471032E-16   9.36474823374486E-01   9.36474823374486E-01   0.00000000000000E+00   0.00000000000000E+00
      6.00127497314489E-08   3.07293287124549E-18   6.00127497345219E-08   4.38940255216674E-16
      9.86474823374486E-01
      0.00000000000000E+00   0.00000000000000E+00   0.00000000000000E+00   0.00000000000000E+00   0.00000000000000E+00
      0.00000000000000E+00   0.00000000000000E+00  -5.63905374782803E-16   0.00000000000000E+00   0.00000000000000E+00
      0.00000000000000E+00   0.00000000000000E+00  -6.20268969666785E-08   2.35559171319239E-23  -6.20268969666785E-08
      1.09475661157904E-16   9.86474823374486E-01   9.86474823374486E-01   0.00000000000000E+00   0.00000000000000E+00
      6.20268969190787E-08   3.15716038251209E-17   6.20268969506504E-08   4.55638671869914E-16
      1.00000000000000E+00
      0.00000000000000E+00   0.00000000000000E+00   0.00000000000000E+00   0.00000000000000E+00   0.00000000000000E+00
      0.00000000000000E+00   0.00000000000000E+00  -5.68405475933446E-16   0.00000000000000E+00   0.00000000000000E+00
      0.00000000000000E+00   0.00000000000000E+00  -6.25741708965597E-08  -7.36933480047558E-24  -6.25741708965598E-08
      1.09469883065277E-16   1.00000000000000E+00   1.00000000000000E+00   0.00000000000000E+00   0.00000000000000E+00
      6.25741708898354E-08   5.87660603963580E-18   6.25741708957120E-08   4.60144640867017E-16
}
