DF-ISE text

Info {
  version   = 1.0
  type      = xyplot
  datasets  = [
    "time"
    "gate OuterVoltage" "gate InnerVoltage" "gate QuasiFermiPotential" "gate DisplacementCurrent" "gate eCurrent"
    "gate hCurrent" "gate TotalCurrent" "gate Charge" "source OuterVoltage" "source InnerVoltage"
    "source QuasiFermiPotential" "source DisplacementCurrent" "source eCurrent" "source hCurrent" "source TotalCurrent"
    "source Charge" "drain OuterVoltage" "drain InnerVoltage" "drain QuasiFermiPotential" "drain DisplacementCurrent"
    "drain eCurrent" "drain hCurrent" "drain TotalCurrent" "drain Charge" ]
  functions = [
    Time
    OuterVoltage InnerVoltage QuasiFermiPotential DisplacementCurrent eCurrent
    hCurrent TotalCurrent Charge OuterVoltage InnerVoltage
    QuasiFermiPotential DisplacementCurrent eCurrent hCurrent TotalCurrent
    Charge OuterVoltage InnerVoltage QuasiFermiPotential DisplacementCurrent
    eCurrent hCurrent TotalCurrent Charge ]
}

Data {
      0.00000000000000E+00
      0.00000000000000E+00   0.00000000000000E+00   0.00000000000000E+00   0.00000000000000E+00   0.00000000000000E+00
      0.00000000000000E+00   0.00000000000000E+00  -2.21652345404271E-16   0.00000000000000E+00   0.00000000000000E+00
      0.00000000000000E+00   0.00000000000000E+00   6.33674011265024E-20  -1.67768914962642E-31   6.33674011263346E-20
      1.11222881166646E-16   0.00000000000000E+00   0.00000000000000E+00   0.00000000000000E+00   0.00000000000000E+00
      5.29811913703674E-21  -1.50186364646485E-31   5.29811913688655E-21   1.11642192348622E-16
      0.00000000000000E+00
      0.00000000000000E+00   0.00000000000000E+00   0.00000000000000E+00   0.00000000000000E+00   0.00000000000000E+00
      0.00000000000000E+00   0.00000000000000E+00  -2.40622464494666E-16   0.00000000000000E+00   0.00000000000000E+00
      0.00000000000000E+00   0.00000000000000E+00   2.44107406900658E-20  -1.40590247616224E-31   2.44107406899252E-20
      1.21145866653423E-16   0.00000000000000E+00   0.00000000000000E+00   0.00000000000000E+00   0.00000000000000E+00
      3.36185925418705E-20  -1.16760769284837E-31   3.36185925417538E-20   1.20974266460657E-16
      0.00000000000000E+00
      0.00000000000000E+00   0.00000000000000E+00   0.00000000000000E+00   0.00000000000000E+00   0.00000000000000E+00
      0.00000000000000E+00   0.00000000000000E+00  -2.40622463906479E-16   0.00000000000000E+00   0.00000000000000E+00
      0.00000000000000E+00   0.00000000000000E+00   1.59253548901801E-17  -2.91907328908325E-30   1.59253548901772E-17
      1.21145866376216E-16   0.00000000000000E+00   0.00000000000000E+00   0.00000000000000E+00   0.00000000000000E+00
      3.56728094256128E-18  -6.50241735178038E-30   3.56728094255478E-18   1.20974266299135E-16
      1.00000000000000E-03
      0.00000000000000E+00   0.00000000000000E+00   0.00000000000000E+00   0.00000000000000E+00   0.00000000000000E+00
      0.00000000000000E+00   0.00000000000000E+00  -2.40998209889102E-16   0.00000000000000E+00   0.00000000000000E+00
      0.00000000000000E+00   0.00000000000000E+00  -1.50777214666367E-09  -4.73094448108961E-27  -1.50777214666367E-09
      1.21145514986057E-16   1.00000000000000E-03   1.00000000000000E-03   0.00000000000000E+00   0.00000000000000E+00
      1.56188219962775E-09   8.68970755599179E-26   1.56188219962775E-09   1.21348890863432E-16
      2.86666666666667E-03
      0.00000000000000E+00   0.00000000000000E+00   0.00000000000000E+00   0.00000000000000E+00   0.00000000000000E+00
      0.00000000000000E+00   0.00000000000000E+00  -2.41699334376841E-16   0.00000000000000E+00   0.00000000000000E+00
      0.00000000000000E+00   0.00000000000000E+00  -3.83564946764138E-09  -1.29146723449716E-26  -3.83564946764138E-09
      1.21144858779043E-16   2.86666666666667E-03   2.86666666666667E-03   0.00000000000000E+00   0.00000000000000E+00
      3.83572180080588E-09  -3.48289115647511E-26   3.83572180080588E-09   1.22047978045801E-16
      6.60000000000000E-03
      0.00000000000000E+00   0.00000000000000E+00   0.00000000000000E+00   0.00000000000000E+00   0.00000000000000E+00
      0.00000000000000E+00   0.00000000000000E+00  -2.43100545822889E-16   0.00000000000000E+00   0.00000000000000E+00
      0.00000000000000E+00   0.00000000000000E+00  -7.07039775370709E-09  -1.60042752101927E-31  -7.07039775370709E-09
      1.21143546234551E-16   6.60000000000000E-03   6.60000000000000E-03   0.00000000000000E+00   0.00000000000000E+00
      7.07039775390028E-09   9.73138928808674E-30   7.07039775390028E-09   1.23445325839016E-16
      1.30711111111111E-02
      0.00000000000000E+00   0.00000000000000E+00   0.00000000000000E+00   0.00000000000000E+00   0.00000000000000E+00
      0.00000000000000E+00   0.00000000000000E+00  -2.45526090332251E-16   0.00000000000000E+00   0.00000000000000E+00
      0.00000000000000E+00   0.00000000000000E+00  -9.96249077945609E-09   2.90852381244767E-26  -9.96249077945609E-09
      1.21141274161394E-16   1.30711111111111E-02   1.30711111111111E-02   0.00000000000000E+00   0.00000000000000E+00
      9.96249084817699E-09   5.60252202125801E-26   9.96249084817699E-09   1.25864797499762E-16
      2.51505185185185E-02
      0.00000000000000E+00   0.00000000000000E+00   0.00000000000000E+00   0.00000000000000E+00   0.00000000000000E+00
      0.00000000000000E+00   0.00000000000000E+00  -2.50043169325413E-16   0.00000000000000E+00   0.00000000000000E+00
      0.00000000000000E+00   0.00000000000000E+00  -1.14415197743341E-08   1.05170490432769E-25  -1.14415197743341E-08
      1.21137052335527E-16   2.51505185185185E-02   2.51505185185185E-02   0.00000000000000E+00   0.00000000000000E+00
      1.14415149236485E-08   1.67439801794904E-25   1.14415149236485E-08   1.30372425096391E-16
      4.76987456790123E-02
      0.00000000000000E+00   0.00000000000000E+00   0.00000000000000E+00   0.00000000000000E+00   0.00000000000000E+00
      0.00000000000000E+00   0.00000000000000E+00  -2.58440029378571E-16   0.00000000000000E+00   0.00000000000000E+00
      0.00000000000000E+00   0.00000000000000E+00  -1.12970428068902E-08   3.57995701655908E-25  -1.12970428068902E-08
      1.21129251213693E-16   4.76987456790123E-02   4.76987456790123E-02   0.00000000000000E+00   0.00000000000000E+00
      1.12970422876389E-08   3.92554835066642E-25   1.12970422876389E-08   1.38756970413921E-16
      6.72405425514403E-02
      0.00000000000000E+00   0.00000000000000E+00   0.00000000000000E+00   0.00000000000000E+00   0.00000000000000E+00
      0.00000000000000E+00   0.00000000000000E+00  -2.65682763577582E-16   0.00000000000000E+00   0.00000000000000E+00
      0.00000000000000E+00   0.00000000000000E+00  -1.13007986112754E-08   6.32366330866759E-27  -1.13007986112754E-08
      1.21122570252859E-16   6.72405425514403E-02   6.72405425514403E-02   0.00000000000000E+00   0.00000000000000E+00
      1.13007985983741E-08   1.47044468667029E-26   1.13007985983741E-08   1.45993299943188E-16
      8.15711935912209E-02
      0.00000000000000E+00   0.00000000000000E+00   0.00000000000000E+00   0.00000000000000E+00   0.00000000000000E+00
      0.00000000000000E+00   0.00000000000000E+00  -2.70974957495824E-16   0.00000000000000E+00   0.00000000000000E+00
      0.00000000000000E+00   0.00000000000000E+00  -1.14901396755382E-08  -2.17910079252618E-25  -1.14901396755382E-08
      1.21117713912011E-16   8.15711935912209E-02   8.15711935912209E-02   0.00000000000000E+00   0.00000000000000E+00
      1.14901396862600E-08  -1.33388276547480E-25   1.14901396862600E-08   1.51282695148375E-16
      1.04500235254870E-01
      0.00000000000000E+00   0.00000000000000E+00   0.00000000000000E+00   0.00000000000000E+00   0.00000000000000E+00
      0.00000000000000E+00   0.00000000000000E+00  -2.79410645912732E-16   0.00000000000000E+00   0.00000000000000E+00
      0.00000000000000E+00   0.00000000000000E+00  -1.19136894928412E-08  -6.29384704930522E-25  -1.19136894928412E-08
      1.21110013457857E-16   1.04500235254870E-01   1.04500235254870E-01   0.00000000000000E+00   0.00000000000000E+00
      1.19136905181621E-08  -2.40016201791904E-25   1.19136905181621E-08   1.59716454995029E-16
      1.19786263030636E-01
      0.00000000000000E+00   0.00000000000000E+00   0.00000000000000E+00   0.00000000000000E+00   0.00000000000000E+00
      0.00000000000000E+00   0.00000000000000E+00  -2.85013719598051E-16   0.00000000000000E+00   0.00000000000000E+00
      0.00000000000000E+00   0.00000000000000E+00  -1.22119226928177E-08  -2.84766753672356E-27  -1.22119226928177E-08
      1.21104924400135E-16   1.19786263030636E-01   1.19786263030636E-01   0.00000000000000E+00   0.00000000000000E+00
      1.22119226929894E-08  -6.68885318881473E-26   1.22119226929894E-08   1.65319609147902E-16
      1.35072290806402E-01
      0.00000000000000E+00   0.00000000000000E+00   0.00000000000000E+00   0.00000000000000E+00   0.00000000000000E+00
      0.00000000000000E+00   0.00000000000000E+00  -2.90600977047332E-16   0.00000000000000E+00   0.00000000000000E+00
      0.00000000000000E+00   0.00000000000000E+00  -1.25013154388868E-08  -8.44506761730866E-31  -1.25013154388868E-08
      1.21099868871148E-16   1.35072290806402E-01   1.35072290806402E-01   0.00000000000000E+00   0.00000000000000E+00
      1.25013154383911E-08   2.58696616050740E-30   1.25013154383911E-08   1.70907801410065E-16
      1.55453661174089E-01
      0.00000000000000E+00   0.00000000000000E+00   0.00000000000000E+00   0.00000000000000E+00   0.00000000000000E+00
      0.00000000000000E+00   0.00000000000000E+00  -2.98027056096963E-16   0.00000000000000E+00   0.00000000000000E+00
      0.00000000000000E+00   0.00000000000000E+00  -1.28637072176095E-08  -1.26826512201971E-28  -1.28637072176095E-08
      1.21093177589485E-16   1.55453661174089E-01   1.55453661174089E-01   0.00000000000000E+00   0.00000000000000E+00
      1.28637072181439E-08  -5.60973008612028E-30   1.28637072181439E-08   1.78336185214829E-16
      1.82628821664340E-01
      0.00000000000000E+00   0.00000000000000E+00   0.00000000000000E+00   0.00000000000000E+00   0.00000000000000E+00
      0.00000000000000E+00   0.00000000000000E+00  -3.07888522330754E-16   0.00000000000000E+00   0.00000000000000E+00
      0.00000000000000E+00   0.00000000000000E+00  -1.33056809826411E-08  -3.22681202338335E-25  -1.33056809826411E-08
      1.21084338500494E-16   1.82628821664340E-01   1.82628821664340E-01   0.00000000000000E+00   0.00000000000000E+00
      1.33056816208657E-08  -3.27353654798501E-26   1.33056816208657E-08   1.88202152075193E-16
      2.02557272690524E-01
      0.00000000000000E+00   0.00000000000000E+00   0.00000000000000E+00   0.00000000000000E+00   0.00000000000000E+00
      0.00000000000000E+00   0.00000000000000E+00  -3.15092615699330E-16   0.00000000000000E+00   0.00000000000000E+00
      0.00000000000000E+00   0.00000000000000E+00  -1.36098915869803E-08  -1.24756588153286E-24  -1.36098915869803E-08
      1.21077912916775E-16   2.02557272690524E-01   2.02557272690524E-01   0.00000000000000E+00   0.00000000000000E+00
      1.36098919180146E-08  -7.62006556498229E-26   1.36098919180146E-08   1.95410315354988E-16
      2.18500033511470E-01
      0.00000000000000E+00   0.00000000000000E+00   0.00000000000000E+00   0.00000000000000E+00   0.00000000000000E+00
      0.00000000000000E+00   0.00000000000000E+00  -3.20839757676414E-16   0.00000000000000E+00   0.00000000000000E+00
      0.00000000000000E+00   0.00000000000000E+00  -1.38440805403587E-08  -1.77031838821067E-25  -1.38440805403587E-08
      1.21072804992131E-16   2.18500033511470E-01   2.18500033511470E-01   0.00000000000000E+00   0.00000000000000E+00
      1.38440805397094E-08   7.21669350395067E-28   1.38440805397094E-08   2.01161066707090E-16
      2.41882749382193E-01
      0.00000000000000E+00   0.00000000000000E+00   0.00000000000000E+00   0.00000000000000E+00   0.00000000000000E+00
      0.00000000000000E+00   0.00000000000000E+00  -3.29243928826285E-16   0.00000000000000E+00   0.00000000000000E+00
      0.00000000000000E+00   0.00000000000000E+00  -1.41811000539445E-08   6.50056883286840E-24  -1.41811000539445E-08
      1.21065363245558E-16   2.41882749382193E-01   2.41882749382193E-01   0.00000000000000E+00   0.00000000000000E+00
      1.41811050430533E-08   2.69706806425464E-25   1.41811050430533E-08   2.09570971415095E-16
      2.76177399325919E-01
      0.00000000000000E+00   0.00000000000000E+00   0.00000000000000E+00   0.00000000000000E+00   0.00000000000000E+00
      0.00000000000000E+00   0.00000000000000E+00  -3.41518681431570E-16   0.00000000000000E+00   0.00000000000000E+00
      0.00000000000000E+00   0.00000000000000E+00  -1.46768583292698E-08  -7.13807986565242E-26  -1.46768583292698E-08
      1.21054550093478E-16   2.76177399325919E-01   2.76177399325919E-01   0.00000000000000E+00   0.00000000000000E+00
      1.46768583744259E-08  -5.76706669145824E-25   1.46768583744259E-08   2.21854815335696E-16
      2.99040499288403E-01
      0.00000000000000E+00   0.00000000000000E+00   0.00000000000000E+00   0.00000000000000E+00   0.00000000000000E+00
      0.00000000000000E+00   0.00000000000000E+00  -3.49669448975029E-16   0.00000000000000E+00   0.00000000000000E+00
      0.00000000000000E+00   0.00000000000000E+00  -1.50106076786019E-08  -1.36434853881582E-25  -1.50106076786019E-08
      1.21047404508653E-16   2.99040499288403E-01   2.99040499288403E-01   0.00000000000000E+00   0.00000000000000E+00
      1.50106074368805E-08  -4.75327290708464E-25   1.50106074368805E-08   2.30011954800131E-16
      3.17330979258390E-01
      0.00000000000000E+00   0.00000000000000E+00   0.00000000000000E+00   0.00000000000000E+00   0.00000000000000E+00
      0.00000000000000E+00   0.00000000000000E+00  -3.56172144108919E-16   0.00000000000000E+00   0.00000000000000E+00
      0.00000000000000E+00   0.00000000000000E+00  -1.52813485924409E-08  -7.93640770721831E-30  -1.52813485924409E-08
      1.21041722611365E-16   3.17330979258390E-01   3.17330979258390E-01   0.00000000000000E+00   0.00000000000000E+00
      1.52813485922007E-08   3.57626027892126E-29   1.52813485922007E-08   2.36519876129827E-16
      3.41718285885039E-01
      0.00000000000000E+00   0.00000000000000E+00   0.00000000000000E+00   0.00000000000000E+00   0.00000000000000E+00
      0.00000000000000E+00   0.00000000000000E+00  -3.64818455210121E-16   0.00000000000000E+00   0.00000000000000E+00
      0.00000000000000E+00   0.00000000000000E+00  -1.56450355281892E-08  -5.83059396202159E-25  -1.56450355281892E-08
      1.21034192515260E-16   3.41718285885039E-01   3.41718285885039E-01   0.00000000000000E+00   0.00000000000000E+00
      1.56450627657820E-08  -1.90066796023041E-24   1.56450627657820E-08   2.45173277532783E-16
      3.62853951628135E-01
      0.00000000000000E+00   0.00000000000000E+00   0.00000000000000E+00   0.00000000000000E+00   0.00000000000000E+00
      0.00000000000000E+00   0.00000000000000E+00  -3.72290459054694E-16   0.00000000000000E+00   0.00000000000000E+00
      0.00000000000000E+00   0.00000000000000E+00  -1.59620228364855E-08  -1.66511475047910E-27  -1.59620228364855E-08
      1.21027707111296E-16   3.62853951628135E-01   3.62853951628135E-01   0.00000000000000E+00   0.00000000000000E+00
      1.59620236942139E-08   8.48767673179983E-28   1.59620236942139E-08   2.52651510986722E-16
      3.91034839285597E-01
      0.00000000000000E+00   0.00000000000000E+00   0.00000000000000E+00   0.00000000000000E+00   0.00000000000000E+00
      0.00000000000000E+00   0.00000000000000E+00  -3.82223174024274E-16   0.00000000000000E+00   0.00000000000000E+00
      0.00000000000000E+00   0.00000000000000E+00  -1.63874414776359E-08  -3.15118854928544E-24  -1.63874414776359E-08
      1.21019116134036E-16   3.91034839285597E-01   3.91034839285597E-01   0.00000000000000E+00   0.00000000000000E+00
      1.63872157499375E-08  -1.32421133519200E-23   1.63872157499375E-08   2.62592610813499E-16
      4.13579549411567E-01
      0.00000000000000E+00   0.00000000000000E+00   0.00000000000000E+00   0.00000000000000E+00   0.00000000000000E+00
      0.00000000000000E+00   0.00000000000000E+00  -3.90145473331629E-16   0.00000000000000E+00   0.00000000000000E+00
      0.00000000000000E+00   0.00000000000000E+00  -1.67262740257317E-08   3.36759747713430E-24  -1.67262740257317E-08
      1.21012287746862E-16   4.13579549411567E-01   4.13579549411567E-01   0.00000000000000E+00   0.00000000000000E+00
      1.67263942438975E-08  -1.31297617868439E-24   1.67263942438975E-08   2.70521654836385E-16
      4.40633201562730E-01
      0.00000000000000E+00   0.00000000000000E+00   0.00000000000000E+00   0.00000000000000E+00   0.00000000000000E+00
      0.00000000000000E+00   0.00000000000000E+00  -3.99625113170510E-16   0.00000000000000E+00   0.00000000000000E+00
      0.00000000000000E+00   0.00000000000000E+00  -1.71334206936970E-08   7.57951631736780E-24  -1.71334206936970E-08
      1.21004143653135E-16   4.40633201562730E-01   4.40633201562730E-01   0.00000000000000E+00   0.00000000000000E+00
      1.71337184330259E-08  -1.86278436357916E-24   1.71337184330259E-08   2.80009418307323E-16
      4.67686853713893E-01
      0.00000000000000E+00   0.00000000000000E+00   0.00000000000000E+00   0.00000000000000E+00   0.00000000000000E+00
      0.00000000000000E+00   0.00000000000000E+00  -4.09076082265520E-16   0.00000000000000E+00   0.00000000000000E+00
      0.00000000000000E+00   0.00000000000000E+00  -1.75377647901139E-08  -9.52449136192618E-25  -1.75377647901139E-08
      1.20996051881415E-16   4.67686853713893E-01   4.67686853713893E-01   0.00000000000000E+00   0.00000000000000E+00
      1.75378737660399E-08  -1.36609310054930E-25   1.75378737660399E-08   2.89468513289045E-16
      5.10972697155754E-01
      0.00000000000000E+00   0.00000000000000E+00   0.00000000000000E+00   0.00000000000000E+00   0.00000000000000E+00
      0.00000000000000E+00   0.00000000000000E+00  -4.24140129440818E-16   0.00000000000000E+00   0.00000000000000E+00
      0.00000000000000E+00   0.00000000000000E+00  -1.81810163282871E-08   3.50254738714359E-23  -1.81810163282871E-08
      1.20983208781214E-16   5.10972697155754E-01   5.10972697155754E-01   0.00000000000000E+00   0.00000000000000E+00
      1.81817289810829E-08  -9.24670086390254E-24   1.81817289810829E-08   3.04545549062716E-16
      5.54258540597615E-01
      0.00000000000000E+00   0.00000000000000E+00   0.00000000000000E+00   0.00000000000000E+00   0.00000000000000E+00
      0.00000000000000E+00   0.00000000000000E+00  -4.39136216676562E-16   0.00000000000000E+00   0.00000000000000E+00
      0.00000000000000E+00   0.00000000000000E+00  -1.88210149542127E-08   3.25827010992497E-23  -1.88210149542126E-08
      1.20970486526252E-16   5.54258540597615E-01   5.54258540597615E-01   0.00000000000000E+00   0.00000000000000E+00
      1.88221216928108E-08  -5.18825567689500E-24   1.88221216928108E-08   3.19554566487301E-16
      6.04258540597615E-01
      0.00000000000000E+00   0.00000000000000E+00   0.00000000000000E+00   0.00000000000000E+00   0.00000000000000E+00
      0.00000000000000E+00   0.00000000000000E+00  -4.56377487426662E-16   0.00000000000000E+00   0.00000000000000E+00
      0.00000000000000E+00   0.00000000000000E+00  -1.95578565122636E-08  -1.95147473851267E-22  -1.95578565122638E-08
      1.20955931937137E-16   6.04258540597615E-01   6.04258540597615E-01   0.00000000000000E+00   0.00000000000000E+00
      1.95595337483854E-08  -1.42484894523718E-23   1.95595337483854E-08   3.36810675978861E-16
      6.54258540597615E-01
      0.00000000000000E+00   0.00000000000000E+00   0.00000000000000E+00   0.00000000000000E+00   0.00000000000000E+00
      0.00000000000000E+00   0.00000000000000E+00  -4.73535762759992E-16   0.00000000000000E+00   0.00000000000000E+00
      0.00000000000000E+00   0.00000000000000E+00  -2.02952359288867E-08  -1.87491490091695E-22  -2.02952359288869E-08
      1.20941518103190E-16   6.54258540597615E-01   6.54258540597615E-01   0.00000000000000E+00   0.00000000000000E+00
      2.02949792434756E-08   6.60798223009315E-24   2.02949792434756E-08   3.53983637236635E-16
      6.66758540597615E-01
      0.00000000000000E+00   0.00000000000000E+00   0.00000000000000E+00   0.00000000000000E+00   0.00000000000000E+00
      0.00000000000000E+00   0.00000000000000E+00  -4.77812770566271E-16   0.00000000000000E+00   0.00000000000000E+00
      0.00000000000000E+00   0.00000000000000E+00  -2.04798207555358E-08  -2.01761702753155E-22  -2.04798207555360E-08
      1.20937935322758E-16   6.66758540597615E-01   6.66758540597615E-01   0.00000000000000E+00   0.00000000000000E+00
      2.04815471712105E-08  -3.04220352142099E-23   2.04815471712105E-08   3.58264287932129E-16
      6.81758540597615E-01
      0.00000000000000E+00   0.00000000000000E+00   0.00000000000000E+00   0.00000000000000E+00   0.00000000000000E+00
      0.00000000000000E+00   0.00000000000000E+00  -4.82938679259750E-16   0.00000000000000E+00   0.00000000000000E+00
      0.00000000000000E+00   0.00000000000000E+00  -2.07014020728109E-08   1.73590941149160E-21  -2.07014020728092E-08
      1.20933646416974E-16   6.81758540597615E-01   6.81758540597615E-01   0.00000000000000E+00   0.00000000000000E+00
      2.07052056620236E-08  -5.98614692731610E-23   2.07052056620235E-08   3.63394552841764E-16
      6.96758540597615E-01
      0.00000000000000E+00   0.00000000000000E+00   0.00000000000000E+00   0.00000000000000E+00   0.00000000000000E+00
      0.00000000000000E+00   0.00000000000000E+00  -4.88057578835380E-16   0.00000000000000E+00   0.00000000000000E+00
      0.00000000000000E+00   0.00000000000000E+00  -2.09231765154792E-08  -3.18697846792891E-23  -2.09231765154792E-08
      1.20929368567371E-16   6.96758540597615E-01   6.96758540597615E-01   0.00000000000000E+00   0.00000000000000E+00
      2.09287858351790E-08  -1.06591690530833E-22   2.09287858351789E-08   3.68517788614790E-16
      7.14758540597615E-01
      0.00000000000000E+00   0.00000000000000E+00   0.00000000000000E+00   0.00000000000000E+00   0.00000000000000E+00
      0.00000000000000E+00   0.00000000000000E+00  -4.94191123701372E-16   0.00000000000000E+00   0.00000000000000E+00
      0.00000000000000E+00   0.00000000000000E+00  -2.11896263421266E-08  -1.38404957006452E-21  -2.11896263421280E-08
      1.20924249241384E-16   7.14758540597615E-01   7.14758540597615E-01   0.00000000000000E+00   0.00000000000000E+00
      2.11859519226185E-08   6.36662555006193E-23   2.11859519226185E-08   3.74656505254914E-16
      7.36358540597616E-01
      0.00000000000000E+00   0.00000000000000E+00   0.00000000000000E+00   0.00000000000000E+00   0.00000000000000E+00
      0.00000000000000E+00   0.00000000000000E+00  -5.01538398073654E-16   0.00000000000000E+00   0.00000000000000E+00
      0.00000000000000E+00   0.00000000000000E+00  -2.15098231042364E-08  -5.31644575795994E-22  -2.15098231042369E-08
      1.20918125522100E-16   7.36358540597616E-01   7.36358540597616E-01   0.00000000000000E+00   0.00000000000000E+00
      2.15031156091049E-08   1.78634040217144E-22   2.15031156091051E-08   3.82009935800878E-16
      7.68038540597616E-01
      0.00000000000000E+00   0.00000000000000E+00   0.00000000000000E+00   0.00000000000000E+00   0.00000000000000E+00
      0.00000000000000E+00   0.00000000000000E+00  -5.12289212676260E-16   0.00000000000000E+00   0.00000000000000E+00
      0.00000000000000E+00   0.00000000000000E+00  -2.19803260622837E-08  -5.63751650797084E-21  -2.19803260622894E-08
      1.20909180261926E-16   7.68038540597616E-01   7.68038540597616E-01   0.00000000000000E+00   0.00000000000000E+00
      2.19596289645358E-08   2.40989852238966E-20   2.19596289645599E-08   3.92769667630940E-16
      7.93038540597616E-01
      0.00000000000000E+00   0.00000000000000E+00   0.00000000000000E+00   0.00000000000000E+00   0.00000000000000E+00
      0.00000000000000E+00   0.00000000000000E+00  -5.20752351613026E-16   0.00000000000000E+00   0.00000000000000E+00
      0.00000000000000E+00   0.00000000000000E+00  -2.23524263576049E-08  -1.80453545214382E-21  -2.23524263576067E-08
      1.20902149259482E-16   7.93038540597616E-01   7.93038540597616E-01   0.00000000000000E+00   0.00000000000000E+00
      2.23483329803221E-08   4.94479667654154E-23   2.23483329803222E-08   4.01239734263414E-16
      8.05538540597616E-01
      0.00000000000000E+00   0.00000000000000E+00   0.00000000000000E+00   0.00000000000000E+00   0.00000000000000E+00
      0.00000000000000E+00   0.00000000000000E+00  -5.24977149931254E-16   0.00000000000000E+00   0.00000000000000E+00
      0.00000000000000E+00   0.00000000000000E+00  -2.25387976369460E-08  -4.51092086632652E-21  -2.25387976369505E-08
      1.20898642248568E-16   8.05538540597616E-01   8.05538540597616E-01   0.00000000000000E+00   0.00000000000000E+00
      2.25097881385204E-08  -1.04286636125130E-21   2.25097881385194E-08   4.05467955139985E-16
      8.18038540597615E-01
      0.00000000000000E+00   0.00000000000000E+00   0.00000000000000E+00   0.00000000000000E+00   0.00000000000000E+00
      0.00000000000000E+00   0.00000000000000E+00  -5.29197488362187E-16   0.00000000000000E+00   0.00000000000000E+00
      0.00000000000000E+00   0.00000000000000E+00  -2.27253677704954E-08  -4.00503444458262E-21  -2.27253677704994E-08
      1.20895140459573E-16   8.18038540597615E-01   8.18038540597615E-01   0.00000000000000E+00   0.00000000000000E+00
      2.27057539020598E-08   2.34066122919440E-17   2.27057539254665E-08   4.09691683602523E-16
      8.41371873930949E-01
      0.00000000000000E+00   0.00000000000000E+00   0.00000000000000E+00   0.00000000000000E+00   0.00000000000000E+00
      0.00000000000000E+00   0.00000000000000E+00  -5.37063641079735E-16   0.00000000000000E+00   0.00000000000000E+00
      0.00000000000000E+00   0.00000000000000E+00  -2.30741687117648E-08   1.58417286134023E-20  -2.30741687117490E-08
      1.20888616849390E-16   8.41371873930949E-01   8.41371873930949E-01   0.00000000000000E+00   0.00000000000000E+00
      2.30837190922768E-08   3.13359252852028E-22   2.30837190922771E-08   4.17564069392126E-16
      8.66260762819838E-01
      0.00000000000000E+00   0.00000000000000E+00   0.00000000000000E+00   0.00000000000000E+00   0.00000000000000E+00
      0.00000000000000E+00   0.00000000000000E+00  -5.45437450925653E-16   0.00000000000000E+00   0.00000000000000E+00
      0.00000000000000E+00   0.00000000000000E+00  -2.34470117587695E-08  -1.88764735571973E-20  -2.34470117587884E-08
      1.20881675536297E-16   8.66260762819838E-01   8.66260762819838E-01   0.00000000000000E+00   0.00000000000000E+00
      2.34519849277010E-08  -2.20590336480592E-20   2.34519849276790E-08   4.25944380912025E-16
      8.96127429486504E-01
      0.00000000000000E+00   0.00000000000000E+00   0.00000000000000E+00   0.00000000000000E+00   0.00000000000000E+00
      0.00000000000000E+00   0.00000000000000E+00  -5.55463522008326E-16   0.00000000000000E+00   0.00000000000000E+00
      0.00000000000000E+00   0.00000000000000E+00  -2.38955896259824E-08  -1.84979514757509E-20  -2.38955896260009E-08
      1.20873367268490E-16   8.96127429486504E-01   8.96127429486504E-01   0.00000000000000E+00   0.00000000000000E+00
      2.38996082977276E-08   5.46925453599403E-18   2.38996083031969E-08   4.35978041801232E-16
      9.35949651708727E-01
      0.00000000000000E+00   0.00000000000000E+00   0.00000000000000E+00   0.00000000000000E+00   0.00000000000000E+00
      0.00000000000000E+00   0.00000000000000E+00  -5.68794046230737E-16   0.00000000000000E+00   0.00000000000000E+00
      0.00000000000000E+00   0.00000000000000E+00  -2.44958205084814E-08  -5.61776338598399E-21  -2.44958205084870E-08
      1.20862322425732E-16   9.35949651708727E-01   9.35949651708727E-01   0.00000000000000E+00   0.00000000000000E+00
      2.44832581654888E-08   1.92738216322613E-19   2.44832581656816E-08   4.49318314066473E-16
      9.45905207264282E-01
      0.00000000000000E+00   0.00000000000000E+00   0.00000000000000E+00   0.00000000000000E+00   0.00000000000000E+00
      0.00000000000000E+00   0.00000000000000E+00  -5.72120055215441E-16   0.00000000000000E+00   0.00000000000000E+00
      0.00000000000000E+00   0.00000000000000E+00  -2.46462910146308E-08   2.33534589819434E-20  -2.46462910146075E-08
      1.20859566345727E-16   9.45905207264282E-01   9.45905207264282E-01   0.00000000000000E+00   0.00000000000000E+00
      2.45794925618995E-08  -1.31503645084619E-19   2.45794925617680E-08   4.52646689161309E-16
      9.55860762819838E-01
      0.00000000000000E+00   0.00000000000000E+00   0.00000000000000E+00   0.00000000000000E+00   0.00000000000000E+00
      0.00000000000000E+00   0.00000000000000E+00  -5.75443441579096E-16   0.00000000000000E+00   0.00000000000000E+00
      0.00000000000000E+00   0.00000000000000E+00  -2.47969368374062E-08  -2.58584540042841E-20  -2.47969368374321E-08
      1.20856811984002E-16   9.55860762819838E-01   9.55860762819838E-01   0.00000000000000E+00   0.00000000000000E+00
      2.45745389090455E-08   3.89863176536504E-18   2.45745389129442E-08   4.55972410512057E-16
      9.69134836893912E-01
      0.00000000000000E+00   0.00000000000000E+00   0.00000000000000E+00   0.00000000000000E+00   0.00000000000000E+00
      0.00000000000000E+00   0.00000000000000E+00  -5.79870572100224E-16   0.00000000000000E+00   0.00000000000000E+00
      0.00000000000000E+00   0.00000000000000E+00  -2.49980810883694E-08  -3.87732505918495E-20  -2.49980810884081E-08
      1.20853141634221E-16   9.69134836893912E-01   9.69134836893912E-01   0.00000000000000E+00   0.00000000000000E+00
      2.47704154306467E-08  -3.92463668255508E-16   2.47704150381831E-08   4.60402599868184E-16
      9.92143231955640E-01
      0.00000000000000E+00   0.00000000000000E+00   0.00000000000000E+00   0.00000000000000E+00   0.00000000000000E+00
      0.00000000000000E+00   0.00000000000000E+00  -5.87533382760345E-16   0.00000000000000E+00   0.00000000000000E+00