DF-ISE text

Info {
  version   = 1.0
  type      = xyplot
  datasets  = [
    "time"
    "gate OuterVoltage" "gate InnerVoltage" "gate QuasiFermiPotential" "gate DisplacementCurrent" "gate eCurrent"
    "gate hCurrent" "gate TotalCurrent" "gate Charge" "source OuterVoltage" "source InnerVoltage"
    "source QuasiFermiPotential" "source DisplacementCurrent" "source eCurrent" "source hCurrent" "source TotalCurrent"
    "source Charge" "drain OuterVoltage" "drain InnerVoltage" "drain QuasiFermiPotential" "drain DisplacementCurrent"
    "drain eCurrent" "drain hCurrent" "drain TotalCurrent" "drain Charge" ]
  functions = [
    Time
    OuterVoltage InnerVoltage QuasiFermiPotential DisplacementCurrent eCurrent
    hCurrent TotalCurrent Charge OuterVoltage InnerVoltage
    QuasiFermiPotential DisplacementCurrent eCurrent hCurrent TotalCurrent
    Charge OuterVoltage InnerVoltage QuasiFermiPotential DisplacementCurrent
    eCurrent hCurrent TotalCurrent Charge ]
}

Data {
      0.00000000000000E+00
      0.00000000000000E+00   0.00000000000000E+00   0.00000000000000E+00   0.00000000000000E+00   0.00000000000000E+00
      0.00000000000000E+00   0.00000000000000E+00   2.29207883249149E-16   0.00000000000000E+00   0.00000000000000E+00
      0.00000000000000E+00   0.00000000000000E+00   8.89733591275672E-19  -2.57913313758326E-18  -1.68939954630759E-18
     -1.14977377739659E-16   0.00000000000000E+00   0.00000000000000E+00   0.00000000000000E+00   0.00000000000000E+00
      7.71610780621322E-18  -8.18659133531695E-18  -4.70483529103732E-19  -1.15441887572549E-16
      0.00000000000000E+00
      0.00000000000000E+00   0.00000000000000E+00   0.00000000000000E+00   0.00000000000000E+00   0.00000000000000E+00
      0.00000000000000E+00   0.00000000000000E+00   2.29207816139815E-16   0.00000000000000E+00   0.00000000000000E+00
      0.00000000000000E+00   0.00000000000000E+00  -1.76350479574172E-17  -2.04603408017042E-17  -3.80953887591214E-17
     -1.14977346404201E-16   0.00000000000000E+00   0.00000000000000E+00   0.00000000000000E+00   0.00000000000000E+00
     -5.17265392450294E-17   2.86284541766123E-17  -2.30980850684171E-17  -1.15441851804436E-16
      0.00000000000000E+00
      0.00000000000000E+00   0.00000000000000E+00   0.00000000000000E+00   0.00000000000000E+00   0.00000000000000E+00
      0.00000000000000E+00   0.00000000000000E+00   2.29207816139716E-16   0.00000000000000E+00   0.00000000000000E+00
      0.00000000000000E+00   0.00000000000000E+00   1.38022252739456E-17  -1.37948347794049E-17   7.39049454070836E-21
     -1.14977346404158E-16   0.00000000000000E+00   0.00000000000000E+00   0.00000000000000E+00   0.00000000000000E+00
      1.54321934481098E-17  -1.54337927080318E-17  -1.59925992194914E-21  -1.15441851804380E-16
      1.00000000000000E-03
      0.00000000000000E+00   0.00000000000000E+00   0.00000000000000E+00   0.00000000000000E+00   0.00000000000000E+00
      0.00000000000000E+00   0.00000000000000E+00   2.29499094390464E-16   0.00000000000000E+00   0.00000000000000E+00
      0.00000000000000E+00   0.00000000000000E+00   5.11357354890751E-10   1.79375257574453E-16   5.11357534266009E-10
     -1.14976850012803E-16  -7.80000000000000E-04  -7.80000000000000E-04   0.00000000000000E+00   0.00000000000000E+00
     -5.11358067723635E-10  -1.42882821289096E-14  -5.11372356005764E-10  -1.15733300483863E-16
      2.86666666666667E-03
      0.00000000000000E+00   0.00000000000000E+00   0.00000000000000E+00   0.00000000000000E+00   0.00000000000000E+00
      0.00000000000000E+00   0.00000000000000E+00   2.30042645413791E-16   0.00000000000000E+00   0.00000000000000E+00
      0.00000000000000E+00   0.00000000000000E+00   1.40118510900846E-09   3.62333567878403E-16   1.40118547134203E-09
     -1.14975924078793E-16  -2.23600000000000E-03  -2.23600000000000E-03   0.00000000000000E+00   0.00000000000000E+00
     -1.40118662093286E-09  -8.19639903091338E-17  -1.40118670289685E-09  -1.16277185536995E-16
      6.60000000000000E-03
      0.00000000000000E+00   0.00000000000000E+00   0.00000000000000E+00   0.00000000000000E+00   0.00000000000000E+00
      0.00000000000000E+00   0.00000000000000E+00   2.31129094980090E-16   0.00000000000000E+00   0.00000000000000E+00
      0.00000000000000E+00   0.00000000000000E+00   2.92880560366755E-09  -3.34901149328181E-15   2.92880225465606E-09
     -1.14974074774466E-16  -5.14800000000000E-03  -5.14800000000000E-03   0.00000000000000E+00   0.00000000000000E+00
     -2.92880590639054E-09  -1.40638568865736E-14  -2.92881997024743E-09  -1.17364362817135E-16
      1.40666666666667E-02
      0.00000000000000E+00   0.00000000000000E+00   0.00000000000000E+00   0.00000000000000E+00   0.00000000000000E+00
      0.00000000000000E+00   0.00000000000000E+00   2.33299425329371E-16   0.00000000000000E+00   0.00000000000000E+00
      0.00000000000000E+00   0.00000000000000E+00   5.11301777402884E-09   6.51856605427350E-18   5.11301778054741E-09
     -1.14970386288094E-16  -1.09720000000000E-02  -1.09720000000000E-02   0.00000000000000E+00   0.00000000000000E+00
     -5.11301779597018E-09   1.54152067178415E-17  -5.11301778055498E-09  -1.19536368942246E-16
      2.70088888888889E-02
      0.00000000000000E+00   0.00000000000000E+00   0.00000000000000E+00   0.00000000000000E+00   0.00000000000000E+00
      0.00000000000000E+00   0.00000000000000E+00   2.37053445905977E-16   0.00000000000000E+00   0.00000000000000E+00
      0.00000000000000E+00   0.00000000000000E+00   7.04147349514714E-09   7.25494541993907E-15   7.04148075009256E-09
     -1.14964024082053E-16  -2.10669333333333E-02  -2.10669333333333E-02   0.00000000000000E+00   0.00000000000000E+00
     -7.04148174629667E-09   1.06230897861594E-15  -7.04148068398769E-09  -1.23293894637310E-16
      5.11677037037037E-02
      0.00000000000000E+00   0.00000000000000E+00   0.00000000000000E+00   0.00000000000000E+00   0.00000000000000E+00
      0.00000000000000E+00   0.00000000000000E+00   2.44035504909045E-16   0.00000000000000E+00   0.00000000000000E+00
      0.00000000000000E+00   0.00000000000000E+00   8.02431156458113E-09  -1.08764575564644E-17   8.02431155370467E-09
     -1.14952246840565E-16  -3.99108088888889E-02  -3.99108088888889E-02   0.00000000000000E+00   0.00000000000000E+00
     -8.02431163572431E-09   8.20030277245725E-17  -8.02431155372128E-09  -1.30284037459216E-16
      8.98218074074074E-02
      0.00000000000000E+00   0.00000000000000E+00   0.00000000000000E+00   0.00000000000000E+00   0.00000000000000E+00
      0.00000000000000E+00   0.00000000000000E+00   2.55143111703577E-16   0.00000000000000E+00   0.00000000000000E+00
      0.00000000000000E+00   0.00000000000000E+00   8.47917547307091E-09  -2.20801207476921E-16   8.47917525226970E-09
     -1.14933638881950E-16  -7.00610097777778E-02  -7.00610097777778E-02   0.00000000000000E+00   0.00000000000000E+00
     -8.47917362480569E-09  -1.62698102860095E-15  -8.47917525178672E-09  -1.41407093622794E-16
      1.39821807407407E-01
      0.00000000000000E+00   0.00000000000000E+00   0.00000000000000E+00   0.00000000000000E+00   0.00000000000000E+00
      0.00000000000000E+00   0.00000000000000E+00   2.69406206289069E-16   0.00000000000000E+00   0.00000000000000E+00
      0.00000000000000E+00   0.00000000000000E+00   9.01869395069103E-09   6.66657569901974E-16   9.01869461734860E-09
     -1.14909940355598E-16  -1.09061009777778E-01  -1.09061009777778E-01   0.00000000000000E+00   0.00000000000000E+00
     -9.01862637046251E-09  -6.82602114944682E-14  -9.01869463067400E-09  -1.55692238340857E-16
      1.89821807407407E-01
      0.00000000000000E+00   0.00000000000000E+00   0.00000000000000E+00   0.00000000000000E+00   0.00000000000000E+00
      0.00000000000000E+00   0.00000000000000E+00   2.83563312201454E-16   0.00000000000000E+00   0.00000000000000E+00
      0.00000000000000E+00   0.00000000000000E+00   9.55481625609626E-09   7.01751607997323E-16   9.55481695784787E-09
     -1.14886607426275E-16  -1.48061009777778E-01  -1.48061009777778E-01   0.00000000000000E+00   0.00000000000000E+00
     -9.55484195131184E-09   2.54687988165091E-14  -9.55481648251302E-09  -1.69872179396476E-16
      2.14821807407407E-01
      0.00000000000000E+00   0.00000000000000E+00   0.00000000000000E+00   0.00000000000000E+00   0.00000000000000E+00
      0.00000000000000E+00   0.00000000000000E+00   2.90605474643252E-16   0.00000000000000E+00   0.00000000000000E+00
      0.00000000000000E+00   0.00000000000000E+00   9.82213326201694E-09   3.88271932692713E-17   9.82213330084413E-09
     -1.14875064397947E-16  -1.67561009777778E-01  -1.67561009777778E-01   0.00000000000000E+00   0.00000000000000E+00
     -9.82213333958430E-09   3.87549326266809E-17  -9.82213330082937E-09  -1.76925827745802E-16
      2.51488474074074E-01
      0.00000000000000E+00   0.00000000000000E+00   0.00000000000000E+00   0.00000000000000E+00   0.00000000000000E+00
      0.00000000000000E+00   0.00000000000000E+00   3.00893103582963E-16   0.00000000000000E+00   0.00000000000000E+00
      0.00000000000000E+00   0.00000000000000E+00   1.02137455895294E-08  -1.43008997334143E-16   1.02137454465204E-08
     -1.14858271578064E-16  -1.96161009777778E-01  -1.96161009777778E-01   0.00000000000000E+00   0.00000000000000E+00
     -1.02137454711377E-08   2.46008722720283E-17  -1.02137454465368E-08  -1.87230279320169E-16
      3.01488474074074E-01
      0.00000000000000E+00   0.00000000000000E+00   0.00000000000000E+00   0.00000000000000E+00   0.00000000000000E+00
      0.00000000000000E+00   0.00000000000000E+00   3.14848247211517E-16   0.00000000000000E+00   0.00000000000000E+00
      0.00000000000000E+00   0.00000000000000E+00   1.07475907929204E-08   1.12707082695374E-17   1.07475908041911E-08
     -1.14835615714080E-16  -2.35161009777778E-01  -2.35161009777778E-01   0.00000000000000E+00   0.00000000000000E+00
     -1.07475907828954E-08  -2.12904640833428E-17  -1.07475908041859E-08  -2.01208230286907E-16
      3.51488474074074E-01
      0.00000000000000E+00   0.00000000000000E+00   0.00000000000000E+00   0.00000000000000E+00   0.00000000000000E+00
      0.00000000000000E+00   0.00000000000000E+00   3.28724606941944E-16   0.00000000000000E+00   0.00000000000000E+00
      0.00000000000000E+00   0.00000000000000E+00   1.12820507080428E-08   1.81958429068867E-16   1.12820508900012E-08
     -1.14813217856030E-16  -2.74161009777778E-01  -2.74161009777778E-01   0.00000000000000E+00   0.00000000000000E+00
     -1.12820509286986E-08   3.86543494580970E-17  -1.12820508900442E-08  -2.15107192960634E-16
      4.01488474074074E-01
      0.00000000000000E+00   0.00000000000000E+00   0.00000000000000E+00   0.00000000000000E+00   0.00000000000000E+00
      0.00000000000000E+00   0.00000000000000E+00   3.42527746070972E-16   0.00000000000000E+00   0.00000000000000E+00
      0.00000000000000E+00   0.00000000000000E+00   1.18178532762192E-08   3.36631095981189E-17   1.18178533098823E-08
     -1.14791056845674E-16  -3.13161009777778E-01  -3.13161009777778E-01   0.00000000000000E+00   0.00000000000000E+00
     -1.18178532688722E-08  -4.09651982800363E-17  -1.18178533098374E-08  -2.28932713504295E-16
      4.51488474074074E-01
      0.00000000000000E+00   0.00000000000000E+00   0.00000000000000E+00   0.00000000000000E+00   0.00000000000000E+00
      0.00000000000000E+00   0.00000000000000E+00   3.56262397812543E-16   0.00000000000000E+00   0.00000000000000E+00
      0.00000000000000E+00   0.00000000000000E+00   1.23555927532860E-08  -1.52517659797886E-16   1.23555926007684E-08
     -1.14769114813079E-16  -3.52161009777778E-01  -3.52161009777778E-01   0.00000000000000E+00   0.00000000000000E+00
     -1.23555926706611E-08   7.13328306710190E-17  -1.23555925993283E-08  -2.42689515007656E-16
      5.01488474074074E-01
      0.00000000000000E+00   0.00000000000000E+00   0.00000000000000E+00   0.00000000000000E+00   0.00000000000000E+00
      0.00000000000000E+00   0.00000000000000E+00   3.69932627371967E-16   0.00000000000000E+00   0.00000000000000E+00
      0.00000000000000E+00   0.00000000000000E+00   1.28957612479558E-08  -1.25963176544742E-16   1.28957611219926E-08
     -1.14747376495014E-16  -3.91161009777778E-01  -3.91161009777778E-01   0.00000000000000E+00   0.00000000000000E+00
     -1.28957641486845E-08   3.05848009396925E-15  -1.28957610902044E-08  -2.56381692116503E-16
      5.51488474074074E-01
      0.00000000000000E+00   0.00000000000000E+00   0.00000000000000E+00   0.00000000000000E+00   0.00000000000000E+00
      0.00000000000000E+00   0.00000000000000E+00   3.83541960821763E-16   0.00000000000000E+00   0.00000000000000E+00
      0.00000000000000E+00   0.00000000000000E+00   1.34387775906713E-08  -4.88851546177780E-15   1.34387727021559E-08
     -1.14725828674685E-16  -4.30161009777778E-01  -4.30161009777778E-01   0.00000000000000E+00   0.00000000000000E+00
     -1.34387791894942E-08   7.65741295086463E-13  -1.34380134481991E-08  -2.70012786855609E-16
      6.01488474074074E-01
      0.00000000000000E+00   0.00000000000000E+00   0.00000000000000E+00   0.00000000000000E+00   0.00000000000000E+00
      0.00000000000000E+00   0.00000000000000E+00   3.97093474011666E-16   0.00000000000000E+00   0.00000000000000E+00
      0.00000000000000E+00   0.00000000000000E+00   1.39849769889975E-08   1.06791531206726E-15   1.39849780569128E-08
     -1.14704459838320E-16  -4.69161009777778E-01  -4.69161009777778E-01   0.00000000000000E+00   0.00000000000000E+00
     -1.39849706256578E-08  -7.42080896946391E-15  -1.39849780464668E-08  -2.83585884175682E-16
      6.51488474074074E-01
      0.00000000000000E+00   0.00000000000000E+00   0.00000000000000E+00   0.00000000000000E+00   0.00000000000000E+00
      0.00000000000000E+00   0.00000000000000E+00   4.10589868893028E-16   0.00000000000000E+00   0.00000000000000E+00
      0.00000000000000E+00   0.00000000000000E+00   1.45346801602798E-08  -2.25240706949629E-15   1.45346779078727E-08
     -1.14683259852266E-16  -5.08161009777778E-01  -5.08161009777778E-01   0.00000000000000E+00   0.00000000000000E+00
     -1.45346724156646E-08  -1.67294853143482E-15  -1.45346740886131E-08  -2.97103694101509E-16
      7.01488474074074E-01
      0.00000000000000E+00   0.00000000000000E+00   0.00000000000000E+00   0.00000000000000E+00   0.00000000000000E+00
      0.00000000000000E+00   0.00000000000000E+00   4.24033530627858E-16   0.00000000000000E+00   0.00000000000000E+00
      0.00000000000000E+00   0.00000000000000E+00   1.50881362115634E-08  -3.78289099771460E-15   1.50881324286724E-08
     -1.14662219728010E-16  -5.47161009777778E-01  -5.47161009777778E-01   0.00000000000000E+00   0.00000000000000E+00
     -1.50881605345848E-08   2.81445788927674E-14  -1.50881323900059E-08  -3.10568608967347E-16
      7.51488474074074E-01
      0.00000000000000E+00   0.00000000000000E+00   0.00000000000000E+00   0.00000000000000E+00   0.00000000000000E+00
      0.00000000000000E+00   0.00000000000000E+00   4.37426570388303E-16   0.00000000000000E+00   0.00000000000000E+00
      0.00000000000000E+00   0.00000000000000E+00   1.56455680812298E-08  -7.06937628388169E-17   1.56455680105360E-08
     -1.14641331456700E-16  -5.86161009777778E-01  -5.86161009777778E-01   0.00000000000000E+00   0.00000000000000E+00
     -1.56455679613835E-08  -4.85993086393145E-17  -1.56455680099828E-08  -3.23982749416210E-16
      8.01488474074074E-01
      0.00000000000000E+00   0.00000000000000E+00   0.00000000000000E+00   0.00000000000000E+00   0.00000000000000E+00
      0.00000000000000E+00   0.00000000000000E+00   4.50770863858078E-16   0.00000000000000E+00   0.00000000000000E+00
      0.00000000000000E+00   0.00000000000000E+00   1.62071830549745E-08   2.08397230919756E-17   1.62071830758142E-08
     -1.14620587867323E-16  -6.25161009777778E-01  -6.25161009777778E-01   0.00000000000000E+00   0.00000000000000E+00
     -1.62071828942245E-08  -1.78003672249228E-16  -1.62071830722281E-08  -3.37347999168370E-16
      8.51488474074074E-01
      0.00000000000000E+00   0.00000000000000E+00   0.00000000000000E+00   0.00000000000000E+00   0.00000000000000E+00
      0.00000000000000E+00   0.00000000000000E+00   4.64068080767559E-16   0.00000000000000E+00   0.00000000000000E+00
      0.00000000000000E+00   0.00000000000000E+00   1.67731516683585E-08  -1.06798573385797E-16   1.67731515615599E-08
     -1.14599982560729E-16  -6.64161009777778E-01  -6.64161009777778E-01   0.00000000000000E+00   0.00000000000000E+00
     -1.67731516881598E-08   3.46887217048628E-16  -1.67731513412725E-08  -3.50666035076714E-16
      9.01488474074074E-01
      0.00000000000000E+00   0.00000000000000E+00   0.00000000000000E+00   0.00000000000000E+00   0.00000000000000E+00
      0.00000000000000E+00   0.00000000000000E+00   4.77319710758146E-16   0.00000000000000E+00   0.00000000000000E+00
      0.00000000000000E+00   0.00000000000000E+00   1.73436295526686E-08  -2.87505301698250E-16   1.73436292651633E-08
     -1.14579509663506E-16  -7.03161009777778E-01  -7.03161009777778E-01   0.00000000000000E+00   0.00000000000000E+00
     -1.73436292555919E-08  -7.13312879767640E-18  -1.73436292627251E-08  -3.63938352364981E-16
      9.51488474074074E-01
      0.00000000000000E+00   0.00000000000000E+00   0.00000000000000E+00   0.00000000000000E+00   0.00000000000000E+00
      0.00000000000000E+00   0.00000000000000E+00   4.90527083241358E-16   0.00000000000000E+00   0.00000000000000E+00
      0.00000000000000E+00   0.00000000000000E+00   1.79187560287048E-08  -8.23195313300639E-17   1.79187559463852E-08
     -1.14559163796780E-16  -7.42161009777778E-01  -7.42161009777778E-01   0.00000000000000E+00   0.00000000000000E+00
     -1.79187560310411E-08   8.46797062967799E-17  -1.79187559463614E-08  -3.77166284488137E-16
      1.00000000000000E+00
      0.00000000000000E+00   0.00000000000000E+00   0.00000000000000E+00   0.00000000000000E+00   0.00000000000000E+00
      0.00000000000000E+00   0.00000000000000E+00   5.03300102875200E-16   0.00000000000000E+00   0.00000000000000E+00
      0.00000000000000E+00   0.00000000000000E+00   1.84813230401274E-08   1.18389670203720E-16   1.84813231585170E-08
     -1.14539540408857E-16  -7.80000000000000E-01  -7.80000000000000E-01   0.00000000000000E+00   0.00000000000000E+00
     -1.84813231509480E-08  -7.54080408910789E-18  -1.84813231584888E-08  -3.89959133749907E-16
}
