DF-ISE text

Info {
  version   = 1.0
  type      = xyplot
  datasets  = [
    "time"
    "gate OuterVoltage" "gate InnerVoltage" "gate QuasiFermiPotential" "gate DisplacementCurrent" "gate eCurrent"
    "gate hCurrent" "gate TotalCurrent" "gate Charge" "source OuterVoltage" "source InnerVoltage"
    "source QuasiFermiPotential" "source DisplacementCurrent" "source eCurrent" "source hCurrent" "source TotalCurrent"
    "source Charge" "drain OuterVoltage" "drain InnerVoltage" "drain QuasiFermiPotential" "drain DisplacementCurrent"
    "drain eCurrent" "drain hCurrent" "drain TotalCurrent" "drain Charge" ]
  functions = [
    Time
    OuterVoltage InnerVoltage QuasiFermiPotential DisplacementCurrent eCurrent
    hCurrent TotalCurrent Charge OuterVoltage InnerVoltage
    QuasiFermiPotential DisplacementCurrent eCurrent hCurrent TotalCurrent
    Charge OuterVoltage InnerVoltage QuasiFermiPotential DisplacementCurrent
    eCurrent hCurrent TotalCurrent Charge ]
}

Data {
      0.00000000000000E+00
      0.00000000000000E+00   0.00000000000000E+00   0.00000000000000E+00   0.00000000000000E+00   0.00000000000000E+00
      0.00000000000000E+00   0.00000000000000E+00   2.07607956930163E-16   0.00000000000000E+00   0.00000000000000E+00
      0.00000000000000E+00   0.00000000000000E+00   2.96573599458839E-19  -2.72604182074621E-18  -2.42946822128737E-18
     -1.04227169099012E-16   0.00000000000000E+00   0.00000000000000E+00   0.00000000000000E+00   0.00000000000000E+00
      6.85876821374159E-18  -7.56245099400885E-18  -7.03682780267260E-19  -1.04619835886418E-16
      0.00000000000000E+00
      0.00000000000000E+00   0.00000000000000E+00   0.00000000000000E+00   0.00000000000000E+00   0.00000000000000E+00
      0.00000000000000E+00   0.00000000000000E+00   2.32190668351168E-16   0.00000000000000E+00   0.00000000000000E+00
      0.00000000000000E+00   0.00000000000000E+00   1.64216032087439E-18  -3.50866433280952E-17  -3.34444830072208E-17
     -1.17216005716441E-16   0.00000000000000E+00   0.00000000000000E+00   0.00000000000000E+00   0.00000000000000E+00
      5.42989190697191E-18  -1.51605272906369E-17  -9.73063538366498E-18  -1.16795689122625E-16
      0.00000000000000E+00
      0.00000000000000E+00   0.00000000000000E+00   0.00000000000000E+00   0.00000000000000E+00   0.00000000000000E+00
      0.00000000000000E+00   0.00000000000000E+00   2.32190668229492E-16   0.00000000000000E+00   0.00000000000000E+00
      0.00000000000000E+00   0.00000000000000E+00  -6.09246632534863E-18   6.90220141066952E-18   8.09735085320885E-19
     -1.17216005683260E-16   0.00000000000000E+00   0.00000000000000E+00   0.00000000000000E+00   0.00000000000000E+00
     -1.42919330998215E-17   1.41729280410528E-17  -1.19005058768726E-19  -1.16795689102997E-16
      1.00000000000000E-03
      0.00000000000000E+00   0.00000000000000E+00   0.00000000000000E+00   0.00000000000000E+00   0.00000000000000E+00
      0.00000000000000E+00   0.00000000000000E+00   2.32435799373153E-16   0.00000000000000E+00   0.00000000000000E+00
      0.00000000000000E+00   0.00000000000000E+00   6.49585318303374E-10   8.28912116130389E-16   6.49586147215490E-10
     -1.17215770493196E-16  -6.50000000000000E-04  -6.50000000000000E-04   0.00000000000000E+00   0.00000000000000E+00
     -6.49587934760113E-10  -2.88350588693521E-12  -6.52471440647049E-10  -1.17039363718564E-16
      2.86666666666667E-03
      0.00000000000000E+00   0.00000000000000E+00   0.00000000000000E+00   0.00000000000000E+00   0.00000000000000E+00
      0.00000000000000E+00   0.00000000000000E+00   2.32893255903515E-16   0.00000000000000E+00   0.00000000000000E+00
      0.00000000000000E+00   0.00000000000000E+00   1.77297942507560E-09   2.46456714316385E-16   1.77297967153231E-09
     -1.17215331666444E-16  -1.86333333333333E-03  -1.86333333333333E-03   0.00000000000000E+00   0.00000000000000E+00
     -1.77298013837747E-09  -1.03637086154054E-14  -1.77299050208609E-09  -1.17494137833102E-16
      6.60000000000000E-03
      0.00000000000000E+00   0.00000000000000E+00   0.00000000000000E+00   0.00000000000000E+00   0.00000000000000E+00
      0.00000000000000E+00   0.00000000000000E+00   2.33807697015457E-16   0.00000000000000E+00   0.00000000000000E+00
      0.00000000000000E+00   0.00000000000000E+00   3.70836172594412E-09   6.64090385999872E-17   3.70836179235316E-09
     -1.17214454829465E-16  -4.29000000000000E-03  -4.29000000000000E-03   0.00000000000000E+00   0.00000000000000E+00
     -3.70836415523826E-09  -1.62461469115400E-13  -3.70852661670738E-09  -1.18403353640967E-16
      1.40666666666667E-02
      0.00000000000000E+00   0.00000000000000E+00   0.00000000000000E+00   0.00000000000000E+00   0.00000000000000E+00
      0.00000000000000E+00   0.00000000000000E+00   2.35634715966558E-16   0.00000000000000E+00   0.00000000000000E+00
      0.00000000000000E+00   0.00000000000000E+00   6.57534987646844E-09   1.72044487573220E-17   6.57534989367289E-09
     -1.17212704758767E-16  -9.14333333333333E-03  -9.14333333333333E-03   0.00000000000000E+00   0.00000000000000E+00
     -6.57534991434135E-09   2.07166263067393E-17  -6.57534989362472E-09  -1.20220458430498E-16
      2.70088888888889E-02
      0.00000000000000E+00   0.00000000000000E+00   0.00000000000000E+00   0.00000000000000E+00   0.00000000000000E+00
      0.00000000000000E+00   0.00000000000000E+00   2.38795801122633E-16   0.00000000000000E+00   0.00000000000000E+00
      0.00000000000000E+00   0.00000000000000E+00   9.40105306056059E-09  -1.74142554401338E-16   9.40105288641803E-09
     -1.17209683906051E-16  -1.75557777777778E-02  -1.75557777777778E-02   0.00000000000000E+00   0.00000000000000E+00
     -9.40105323122675E-09   3.63226296870014E-16  -9.40105286800045E-09  -1.23365934941774E-16
      5.11677037037037E-02
      0.00000000000000E+00   0.00000000000000E+00   0.00000000000000E+00   0.00000000000000E+00   0.00000000000000E+00
      0.00000000000000E+00   0.00000000000000E+00   2.44677788817406E-16   0.00000000000000E+00   0.00000000000000E+00
      0.00000000000000E+00   0.00000000000000E+00   1.10698476626121E-08   3.60709866952439E-14   1.10698837335988E-08
     -1.17204090290903E-16  -3.32590074074074E-02  -3.32590074074074E-02   0.00000000000000E+00   0.00000000000000E+00
     -1.10698735893195E-08  -8.04103317380149E-15  -1.10698816303526E-08  -1.29223474560184E-16
      9.62641580246914E-02
      0.00000000000000E+00   0.00000000000000E+00   0.00000000000000E+00   0.00000000000000E+00   0.00000000000000E+00
      0.00000000000000E+00   0.00000000000000E+00   2.55596808336148E-16   0.00000000000000E+00   0.00000000000000E+00
      0.00000000000000E+00   0.00000000000000E+00   1.08169994627942E-08   4.89859039217385E-15   1.08170043613846E-08
     -1.17193800631016E-16  -6.25717027160494E-02  -6.25717027160494E-02   0.00000000000000E+00   0.00000000000000E+00
     -1.08170054461913E-08   9.34275290791407E-16  -1.08170045119160E-08  -1.40109771343360E-16
      1.46264158024691E-01
      0.00000000000000E+00   0.00000000000000E+00   0.00000000000000E+00   0.00000000000000E+00   0.00000000000000E+00
      0.00000000000000E+00   0.00000000000000E+00   2.67618891315317E-16   0.00000000000000E+00   0.00000000000000E+00
      0.00000000000000E+00   0.00000000000000E+00   1.04694271388091E-08  -3.70602463491626E-17   1.04694271017489E-08
     -1.17182596207847E-16  -9.50717027160494E-02  -9.50717027160494E-02   0.00000000000000E+00   0.00000000000000E+00
     -1.04694271214847E-08   2.04382640291518E-17  -1.04694271010464E-08  -1.52109686905864E-16
      1.96264158024691E-01
      0.00000000000000E+00   0.00000000000000E+00   0.00000000000000E+00   0.00000000000000E+00   0.00000000000000E+00
      0.00000000000000E+00   0.00000000000000E+00   2.79560796950904E-16   0.00000000000000E+00   0.00000000000000E+00
      0.00000000000000E+00   0.00000000000000E+00   1.06456721318036E-08   1.92286087107775E-17   1.06456721510322E-08
     -1.17171577308530E-16  -1.27571702716049E-01  -1.27571702716049E-01   0.00000000000000E+00   0.00000000000000E+00
     -1.06456721416688E-08  -1.03145655783610E-17  -1.06456721519834E-08  -1.64039450989237E-16
      2.46264158024691E-01
      0.00000000000000E+00   0.00000000000000E+00   0.00000000000000E+00   0.00000000000000E+00   0.00000000000000E+00
      0.00000000000000E+00   0.00000000000000E+00   2.91429425243897E-16   0.00000000000000E+00   0.00000000000000E+00
      0.00000000000000E+00   0.00000000000000E+00   1.10927713566030E-08   2.03369895475640E-15   1.10927733903020E-08
     -1.17160722154191E-16  -1.60071702716049E-01  -1.60071702716049E-01   0.00000000000000E+00   0.00000000000000E+00
     -1.10927757638895E-08   1.57996548225415E-15  -1.10927741839240E-08  -1.75902730280655E-16
      2.71264158024691E-01
      0.00000000000000E+00   0.00000000000000E+00   0.00000000000000E+00   0.00000000000000E+00   0.00000000000000E+00
      0.00000000000000E+00   0.00000000000000E+00   2.97338062029546E-16   0.00000000000000E+00   0.00000000000000E+00
      0.00000000000000E+00   0.00000000000000E+00   1.13669281251878E-08  -3.23793593018535E-15   1.13669248872518E-08
     -1.17155350667478E-16  -1.76321702716049E-01  -1.76321702716049E-01   0.00000000000000E+00   0.00000000000000E+00
     -1.13669235205485E-08  -1.12889980904701E-15  -1.13669246494483E-08  -1.81810543151646E-16
      3.11264158024691E-01
      0.00000000000000E+00   0.00000000000000E+00   0.00000000000000E+00   0.00000000000000E+00   0.00000000000000E+00
      0.00000000000000E+00   0.00000000000000E+00   3.06758250820931E-16   0.00000000000000E+00   0.00000000000000E+00
      0.00000000000000E+00   0.00000000000000E+00   1.18363522292926E-08  -6.58107026104356E-18   1.18363522227116E-08
     -1.17146828460193E-16  -2.02321702716049E-01  -2.02321702716049E-01   0.00000000000000E+00   0.00000000000000E+00
     -1.18363522030024E-08  -1.95203954833435E-17  -1.18363522225228E-08  -1.91231342842083E-16
      3.36264158024691E-01
      0.00000000000000E+00   0.00000000000000E+00   0.00000000000000E+00   0.00000000000000E+00   0.00000000000000E+00
      0.00000000000000E+00   0.00000000000000E+00   3.12625708733973E-16   0.00000000000000E+00   0.00000000000000E+00
      0.00000000000000E+00   0.00000000000000E+00   1.21396457924768E-08   3.16147807640464E-17   1.21396458240916E-08
     -1.17141544807360E-16  -2.18571702716049E-01  -2.18571702716049E-01   0.00000000000000E+00   0.00000000000000E+00
     -1.21396458579518E-08   3.36425607314822E-17  -1.21396458243092E-08  -1.97100151357059E-16
      3.69597491358025E-01
      0.00000000000000E+00   0.00000000000000E+00   0.00000000000000E+00   0.00000000000000E+00   0.00000000000000E+00
      0.00000000000000E+00   0.00000000000000E+00   3.20425882151208E-16   0.00000000000000E+00   0.00000000000000E+00
      0.00000000000000E+00   0.00000000000000E+00   1.25433541169631E-08  -5.47761020664685E-16   1.25433535692021E-08
     -1.17134548299083E-16  -2.40238369382716E-01  -2.40238369382716E-01   0.00000000000000E+00   0.00000000000000E+00
     -1.25433536320120E-08   5.51787290634825E-17  -1.25433535768332E-08  -2.04903038805395E-16
      4.19597491358025E-01
      0.00000000000000E+00   0.00000000000000E+00   0.00000000000000E+00   0.00000000000000E+00   0.00000000000000E+00
      0.00000000000000E+00   0.00000000000000E+00   3.32078789220179E-16   0.00000000000000E+00   0.00000000000000E+00
      0.00000000000000E+00   0.00000000000000E+00   1.31364153214990E-08  -2.96324375457010E-17   1.31364152918666E-08
     -1.17124151391671E-16  -2.72738369382716E-01  -2.72738369382716E-01   0.00000000000000E+00   0.00000000000000E+00
     -1.31364152604249E-08  -3.18724398010645E-17  -1.31364152922974E-08  -2.16561532545706E-16
      4.69597491358025E-01
      0.00000000000000E+00   0.00000000000000E+00   0.00000000000000E+00   0.00000000000000E+00   0.00000000000000E+00
      0.00000000000000E+00   0.00000000000000E+00   3.43677724692377E-16   0.00000000000000E+00   0.00000000000000E+00
      0.00000000000000E+00   0.00000000000000E+00   1.37000328291237E-08  -5.26759071590758E-17   1.37000327764478E-08
     -1.17113864416353E-16  -3.05238369382716E-01  -3.05238369382716E-01   0.00000000000000E+00   0.00000000000000E+00
     -1.37000327936027E-08   1.70316080634343E-17  -1.37000327765711E-08  -2.28167381480991E-16
      5.19597491358025E-01
      0.00000000000000E+00   0.00000000000000E+00   0.00000000000000E+00   0.00000000000000E+00   0.00000000000000E+00
      0.00000000000000E+00   0.00000000000000E+00   3.55225531222973E-16   0.00000000000000E+00   0.00000000000000E+00
      0.00000000000000E+00   0.00000000000000E+00   1.42261740100549E-08  -2.23750903311512E-15   1.42261717725459E-08
     -1.17103680007725E-16  -3.37738369382716E-01  -3.37738369382716E-01   0.00000000000000E+00   0.00000000000000E+00
     -1.42261728198386E-08   3.59777260922398E-14  -1.42261368421125E-08  -2.39723028862020E-16
      5.69597491358025E-01
      0.00000000000000E+00   0.00000000000000E+00   0.00000000000000E+00   0.00000000000000E+00   0.00000000000000E+00
      0.00000000000000E+00   0.00000000000000E+00   3.66724718213685E-16   0.00000000000000E+00   0.00000000000000E+00
      0.00000000000000E+00   0.00000000000000E+00   1.47190439066500E-08  -4.03598436799144E-15   1.47190398706656E-08
     -1.17093591785934E-16  -3.70238369382716E-01  -3.70238369382716E-01   0.00000000000000E+00   0.00000000000000E+00
     -1.47190415360594E-08   1.98430681754042E-14  -1.47190216929912E-08  -2.51230703269646E-16
      6.19597491358025E-01
      0.00000000000000E+00   0.00000000000000E+00   0.00000000000000E+00   0.00000000000000E+00   0.00000000000000E+00
      0.00000000000000E+00   0.00000000000000E+00   3.78177520623791E-16   0.00000000000000E+00   0.00000000000000E+00
      0.00000000000000E+00   0.00000000000000E+00   1.51914232616379E-08   3.43837707287811E-15   1.51914267000150E-08
     -1.17083594128489E-16  -4.02738369382716E-01  -4.02738369382716E-01   0.00000000000000E+00   0.00000000000000E+00
     -1.51914268295034E-08  -4.34035285449368E-14  -1.51914702330319E-08  -2.62692438185173E-16
      6.69597491358025E-01
      0.00000000000000E+00   0.00000000000000E+00   0.00000000000000E+00   0.00000000000000E+00   0.00000000000000E+00
      0.00000000000000E+00   0.00000000000000E+00   3.89585929072337E-16   0.00000000000000E+00   0.00000000000000E+00
      0.00000000000000E+00   0.00000000000000E+00   1.56369921705076E-08   7.30969794902628E-14   1.56370652674871E-08
     -1.17073682029700E-16  -4.35238369382716E-01  -4.35238369382716E-01   0.00000000000000E+00   0.00000000000000E+00
     -1.56370648950782E-08  -7.41382198635322E-14  -1.56371390332981E-08  -2.74110086108736E-16
      7.19597491358025E-01
      0.00000000000000E+00   0.00000000000000E+00   0.00000000000000E+00   0.00000000000000E+00   0.00000000000000E+00
      0.00000000000000E+00   0.00000000000000E+00   4.00951743728705E-16   0.00000000000000E+00   0.00000000000000E+00
      0.00000000000000E+00   0.00000000000000E+00   1.60806125446589E-08  -9.87922942697754E-14   1.60805137523646E-08
     -1.17063851052401E-16  -4.67738369382716E-01  -4.67738369382716E-01   0.00000000000000E+00   0.00000000000000E+00
     -1.60805115173097E-08  -1.21068987003469E-13  -1.60806325862967E-08  -2.85485342533560E-16
      7.69597491358025E-01
      0.00000000000000E+00   0.00000000000000E+00   0.00000000000000E+00   0.00000000000000E+00   0.00000000000000E+00
      0.00000000000000E+00   0.00000000000000E+00   4.12276578428630E-16   0.00000000000000E+00   0.00000000000000E+00
      0.00000000000000E+00   0.00000000000000E+00   1.65131224600087E-08  -1.61141921417459E-13   1.65129613180873E-08
     -1.17054097186426E-16  -5.00238369382716E-01  -5.00238369382716E-01   0.00000000000000E+00   0.00000000000000E+00
     -1.65129574709921E-08  -1.63254989302228E-13  -1.65131207259814E-08  -2.96819752789257E-16
      8.19597491358025E-01
      0.00000000000000E+00   0.00000000000000E+00   0.00000000000000E+00   0.00000000000000E+00   0.00000000000000E+00
      0.00000000000000E+00   0.00000000000000E+00   4.23561911016739E-16   0.00000000000000E+00   0.00000000000000E+00
      0.00000000000000E+00   0.00000000000000E+00   1.69523895043468E-08   3.03766970533117E-14   1.69524198810439E-08
     -1.17044416789345E-16  -5.32738369382716E-01  -5.32738369382716E-01   0.00000000000000E+00   0.00000000000000E+00
     -1.69524201531669E-08  -1.11751140209470E-13  -1.69525319043071E-08  -3.08114737592165E-16
      8.44597491358025E-01
      0.00000000000000E+00   0.00000000000000E+00   0.00000000000000E+00   0.00000000000000E+00   0.00000000000000E+00
      0.00000000000000E+00   0.00000000000000E+00   4.29190181052231E-16   0.00000000000000E+00   0.00000000000000E+00
      0.00000000000000E+00   0.00000000000000E+00   1.71723158187221E-08   2.85021668804675E-14   1.71723443208890E-08
     -1.17039603111001E-16  -5.48988369382716E-01  -5.48988369382716E-01   0.00000000000000E+00   0.00000000000000E+00
     -1.71723451394629E-08  -2.02951778127467E-13  -1.71725480912411E-08  -3.13747853339604E-16
      8.69597491358025E-01
      0.00000000000000E+00   0.00000000000000E+00   0.00000000000000E+00   0.00000000000000E+00   0.00000000000000E+00
      0.00000000000000E+00   0.00000000000000E+00   4.34809065685991E-16   0.00000000000000E+00   0.00000000000000E+00
      0.00000000000000E+00   0.00000000000000E+00   1.73932913289265E-08   2.22713750766698E-16   1.73932915516402E-08
     -1.17034806586754E-16  -5.65238369382716E-01  -5.65238369382716E-01   0.00000000000000E+00   0.00000000000000E+00
     -1.73932924131809E-08  -1.56433125392779E-13  -1.73934488463063E-08  -3.19371590544896E-16
      8.99597491358025E-01
      0.00000000000000E+00   0.00000000000000E+00   0.00000000000000E+00   0.00000000000000E+00   0.00000000000000E+00
      0.00000000000000E+00   0.00000000000000E+00   4.41539551194075E-16   0.00000000000000E+00   0.00000000000000E+00
      0.00000000000000E+00   0.00000000000000E+00   1.76617270664571E-08   1.76685293739619E-16   1.76617272431424E-08
     -1.17029072863495E-16  -5.84738369382716E-01  -5.84738369382716E-01   0.00000000000000E+00   0.00000000000000E+00
     -1.76617261368379E-08   2.41956581169774E-13  -1.76614841802568E-08  -3.26107901887304E-16
      9.47597491358025E-01
      0.00000000000000E+00   0.00000000000000E+00   0.00000000000000E+00   0.00000000000000E+00   0.00000000000000E+00
      0.00000000000000E+00   0.00000000000000E+00   4.52281273203912E-16   0.00000000000000E+00   0.00000000000000E+00
      0.00000000000000E+00   0.00000000000000E+00   1.80970754978096E-08   3.57584194401397E-17   1.80970755335680E-08
     -1.17019947611886E-16  -6.15938369382716E-01  -6.15938369382716E-01   0.00000000000000E+00   0.00000000000000E+00
     -1.80970760573626E-08  -2.53608324189644E-13  -1.80973296656868E-08  -3.36858943009111E-16
      9.72597491358025E-01
      0.00000000000000E+00   0.00000000000000E+00   0.00000000000000E+00   0.00000000000000E+00   0.00000000000000E+00
      0.00000000000000E+00   0.00000000000000E+00   4.57862993280148E-16   0.00000000000000E+00   0.00000000000000E+00
      0.00000000000000E+00   0.00000000000000E+00   1.83264090347792E-08  -1.63053242924888E-16   1.83264088717260E-08
     -1.17015217952592E-16  -6.32188369382716E-01  -6.32188369382716E-01   0.00000000000000E+00   0.00000000000000E+00
     -1.83264097733158E-08  -3.36926620550611E-13  -1.83267466999364E-08  -3.42445513997213E-16
      9.97597491358025E-01
      0.00000000000000E+00   0.00000000000000E+00   0.00000000000000E+00   0.00000000000000E+00   0.00000000000000E+00
      0.00000000000000E+00   0.00000000000000E+00   4.63436024750489E-16   0.00000000000000E+00   0.00000000000000E+00
      0.00000000000000E+00   0.00000000000000E+00   1.85579057781052E-08  -7.00255603564648E-16   1.85579050778496E-08
     -1.17010503662524E-16  -6.48438369382716E-01  -6.48438369382716E-01   0.00000000000000E+00   0.00000000000000E+00
     -1.85579061858791E-08  -5.91559799956109E-13  -1.85584977456791E-08  -3.48023391667721E-16
      1.00000000000000E+00
      0.00000000000000E+00   0.00000000000000E+00   0.00000000000000E+00   0.00000000000000E+00   0.00000000000000E+00
      0.00000000000000E+00   0.00000000000000E+00   4.63971152020635E-16   0.00000000000000E+00   0.00000000000000E+00
      0.00000000000000E+00   0.00000000000000E+00   1.85802869133897E-08  -1.16643486281555E-14   1.85802752490411E-08
     -1.17010051390337E-16  -6.50000000000000E-01  -6.50000000000000E-01   0.00000000000000E+00   0.00000000000000E+00
     -1.85802813256720E-08  -1.36917654729897E-12  -1.85816505022193E-08  -3.48558984284489E-16
}
