DF-ISE text

Info {
  version   = 1.0
  type      = xyplot
  datasets  = [
    "time"
    "gate OuterVoltage" "gate InnerVoltage" "gate QuasiFermiPotential" "gate DisplacementCurrent" "gate eCurrent"
    "gate hCurrent" "gate TotalCurrent" "gate Charge" "source OuterVoltage" "source InnerVoltage"
    "source QuasiFermiPotential" "source DisplacementCurrent" "source eCurrent" "source hCurrent" "source TotalCurrent"
    "source Charge" "drain OuterVoltage" "drain InnerVoltage" "drain QuasiFermiPotential" "drain DisplacementCurrent"
    "drain eCurrent" "drain hCurrent" "drain TotalCurrent" "drain Charge" ]
  functions = [
    Time
    OuterVoltage InnerVoltage QuasiFermiPotential DisplacementCurrent eCurrent
    hCurrent TotalCurrent Charge OuterVoltage InnerVoltage
    QuasiFermiPotential DisplacementCurrent eCurrent hCurrent TotalCurrent
    Charge OuterVoltage InnerVoltage QuasiFermiPotential DisplacementCurrent
    eCurrent hCurrent TotalCurrent Charge ]
}

Data {
      0.00000000000000E+00
      0.00000000000000E+00   0.00000000000000E+00   0.00000000000000E+00   0.00000000000000E+00   0.00000000000000E+00
      0.00000000000000E+00   0.00000000000000E+00   2.07607956930163E-16   0.00000000000000E+00   0.00000000000000E+00
      0.00000000000000E+00   0.00000000000000E+00   2.96573599458837E-19  -2.72886124361706E-18  -2.43228764415822E-18
     -1.04227169099012E-16   0.00000000000000E+00   0.00000000000000E+00   0.00000000000000E+00   0.00000000000000E+00
      6.85876821374160E-18  -7.56253217138920E-18  -7.03763957647600E-19  -1.04619835886418E-16
      0.00000000000000E+00
      0.00000000000000E+00   0.00000000000000E+00   0.00000000000000E+00   0.00000000000000E+00   0.00000000000000E+00
      0.00000000000000E+00   0.00000000000000E+00   2.32190668351168E-16   0.00000000000000E+00   0.00000000000000E+00
      0.00000000000000E+00   0.00000000000000E+00   1.00356373986615E-18  -3.43271560121047E-17  -3.33235922722385E-17
     -1.17216005716441E-16   0.00000000000000E+00   0.00000000000000E+00   0.00000000000000E+00   0.00000000000000E+00
      6.57321094485378E-18  -1.63097782400772E-17  -9.73656729522339E-18  -1.16795689122625E-16
      0.00000000000000E+00
      0.00000000000000E+00   0.00000000000000E+00   0.00000000000000E+00   0.00000000000000E+00   0.00000000000000E+00
      0.00000000000000E+00   0.00000000000000E+00   2.32190668229492E-16   0.00000000000000E+00   0.00000000000000E+00
      0.00000000000000E+00   0.00000000000000E+00  -1.00155287208694E-17   1.08430992116831E-17   8.27570490813695E-19
     -1.17216005683260E-16   0.00000000000000E+00   0.00000000000000E+00   0.00000000000000E+00   0.00000000000000E+00
     -3.43000400863997E-18   3.38061765421122E-18  -4.93863544287492E-20  -1.16795689102997E-16
      1.00000000000000E-03
      0.00000000000000E+00   0.00000000000000E+00   0.00000000000000E+00   0.00000000000000E+00   0.00000000000000E+00
      0.00000000000000E+00   0.00000000000000E+00   2.32530068461333E-16   0.00000000000000E+00   0.00000000000000E+00
      0.00000000000000E+00   0.00000000000000E+00   8.90324289654549E-10   1.68874121533524E-15   8.90325978395764E-10
     -1.17215680054512E-16  -9.00000000000000E-04  -9.00000000000000E-04   0.00000000000000E+00   0.00000000000000E+00
     -8.90328597846946E-10  -1.06855581979288E-11  -9.01014156044875E-10  -1.17133076246635E-16
      2.86666666666667E-03
      0.00000000000000E+00   0.00000000000000E+00   0.00000000000000E+00   0.00000000000000E+00   0.00000000000000E+00
      0.00000000000000E+00   0.00000000000000E+00   2.33163382777634E-16   0.00000000000000E+00   0.00000000000000E+00
      0.00000000000000E+00   0.00000000000000E+00   2.38558473572379E-09   4.71038781733871E-16   2.38558520676257E-09
     -1.17215072593984E-16  -2.58000000000000E-03  -2.58000000000000E-03   0.00000000000000E+00   0.00000000000000E+00
     -2.38558626624929E-09  -3.80243041242357E-14  -2.38562429055342E-09  -1.17762702336888E-16
      6.60000000000000E-03
      0.00000000000000E+00   0.00000000000000E+00   0.00000000000000E+00   0.00000000000000E+00   0.00000000000000E+00
      0.00000000000000E+00   0.00000000000000E+00   2.34429110258113E-16   0.00000000000000E+00   0.00000000000000E+00
      0.00000000000000E+00   0.00000000000000E+00   4.81800810887169E-09  -2.19382339551128E-15   4.81800591504829E-09
     -1.17213859294935E-16  -5.94000000000000E-03  -5.94000000000000E-03   0.00000000000000E+00   0.00000000000000E+00
     -4.81800983816886E-09  -5.95041006256399E-13  -4.81860487917512E-09  -1.19021317619069E-16
      1.40666666666667E-02
      0.00000000000000E+00   0.00000000000000E+00   0.00000000000000E+00   0.00000000000000E+00   0.00000000000000E+00
      0.00000000000000E+00   0.00000000000000E+00   2.36957024799917E-16   0.00000000000000E+00   0.00000000000000E+00
      0.00000000000000E+00   0.00000000000000E+00   8.01968924112967E-09  -4.94423303813497E-17   8.01968919168734E-09
     -1.17211439934806E-16  -1.26600000000000E-02  -1.26600000000000E-02   0.00000000000000E+00   0.00000000000000E+00
     -8.01968915871486E-09  -3.23563634419072E-17  -8.01968919107122E-09  -1.21536008587909E-16
      2.70088888888889E-02
      0.00000000000000E+00   0.00000000000000E+00   0.00000000000000E+00   0.00000000000000E+00   0.00000000000000E+00
      0.00000000000000E+00   0.00000000000000E+00   2.41327915068046E-16   0.00000000000000E+00   0.00000000000000E+00
      0.00000000000000E+00   0.00000000000000E+00   1.04879396799521E-08   5.61521404860961E-15   1.04879452951661E-08
     -1.17207271439882E-16  -2.43080000000000E-02  -2.43080000000000E-02   0.00000000000000E+00   0.00000000000000E+00
     -1.04879411588331E-08  -3.81197008379992E-15  -1.04879449708032E-08  -1.25886839268999E-16
      5.11677037037037E-02
      0.00000000000000E+00   0.00000000000000E+00   0.00000000000000E+00   0.00000000000000E+00   0.00000000000000E+00
      0.00000000000000E+00   0.00000000000000E+00   2.49452167977326E-16   0.00000000000000E+00   0.00000000000000E+00
      0.00000000000000E+00   0.00000000000000E+00   1.11218041134211E-08  -3.78004758596615E-18   1.11218041096410E-08
     -1.17199576635701E-16  -4.60509333333333E-02  -4.60509333333333E-02   0.00000000000000E+00   0.00000000000000E+00
     -1.11218041679163E-08   5.99597472333429E-17  -1.11218041079566E-08  -1.33981759114198E-16
      8.98218074074074E-02
      0.00000000000000E+00   0.00000000000000E+00   0.00000000000000E+00   0.00000000000000E+00   0.00000000000000E+00
      0.00000000000000E+00   0.00000000000000E+00   2.62364632408275E-16   0.00000000000000E+00   0.00000000000000E+00
      0.00000000000000E+00   0.00000000000000E+00   1.05456836102827E-08  -6.25002845814758E-16   1.05456829852798E-08
     -1.17187478352062E-16  -8.08396266666667E-02  -8.08396266666667E-02   0.00000000000000E+00   0.00000000000000E+00
     -1.05456831691400E-08   2.04934523877953E-16  -1.05456829642054E-08  -1.46863656282567E-16
      1.14821807407407E-01
      0.00000000000000E+00   0.00000000000000E+00   0.00000000000000E+00   0.00000000000000E+00   0.00000000000000E+00
      0.00000000000000E+00   0.00000000000000E+00   2.70664188451960E-16   0.00000000000000E+00   0.00000000000000E+00
      0.00000000000000E+00   0.00000000000000E+00   1.04748668128433E-08  -4.72376969683956E-15   1.04748620890736E-08
     -1.17179776412919E-16  -1.03339626666667E-01  -1.03339626666667E-01   0.00000000000000E+00   0.00000000000000E+00
     -1.04748618233717E-08  -2.37578282778151E-16  -1.04748620609500E-08  -1.55151097000548E-16
      1.54821807407407E-01
      0.00000000000000E+00   0.00000000000000E+00   0.00000000000000E+00   0.00000000000000E+00   0.00000000000000E+00
      0.00000000000000E+00   0.00000000000000E+00   2.83866452378152E-16   0.00000000000000E+00   0.00000000000000E+00
      0.00000000000000E+00   0.00000000000000E+00   1.07872159578942E-08  -6.34896157378916E-15   1.07872096089326E-08
     -1.17167628809047E-16  -1.39339626666667E-01  -1.39339626666667E-01   0.00000000000000E+00   0.00000000000000E+00
     -1.07872095992509E-08   4.05590031455796E-17  -1.07872095586919E-08  -1.68342515434208E-16
      1.78821807407407E-01
      0.00000000000000E+00   0.00000000000000E+00   0.00000000000000E+00   0.00000000000000E+00   0.00000000000000E+00
      0.00000000000000E+00   0.00000000000000E+00   2.91745431146398E-16   0.00000000000000E+00   0.00000000000000E+00
      0.00000000000000E+00   0.00000000000000E+00   1.11070916327602E-08   2.25250289995941E-17   1.11070916552853E-08
     -1.17160434347033E-16  -1.60939626666667E-01  -1.60939626666667E-01   0.00000000000000E+00   0.00000000000000E+00
     -1.11070916807195E-08   2.51783061312614E-17  -1.11070916555412E-08  -1.76218664846399E-16
      2.07621807407407E-01
      0.00000000000000E+00   0.00000000000000E+00   0.00000000000000E+00   0.00000000000000E+00   0.00000000000000E+00
      0.00000000000000E+00   0.00000000000000E+00   3.01161000672435E-16   0.00000000000000E+00   0.00000000000000E+00
      0.00000000000000E+00   0.00000000000000E+00   1.15530931517395E-08  -2.01018796392055E-17   1.15530931316376E-08
     -1.17151886141899E-16  -1.86859626666667E-01  -1.86859626666667E-01   0.00000000000000E+00   0.00000000000000E+00
     -1.15530931245399E-08  -6.92581036906614E-18  -1.15530931314657E-08  -1.85633471446248E-16
      2.42181807407407E-01
      0.00000000000000E+00   0.00000000000000E+00   0.00000000000000E+00   0.00000000000000E+00   0.00000000000000E+00
      0.00000000000000E+00   0.00000000000000E+00   3.12406419474421E-16   0.00000000000000E+00   0.00000000000000E+00
      0.00000000000000E+00   0.00000000000000E+00   1.21281954637398E-08  -2.45738630258081E-16   1.21281952180012E-08
     -1.17141741951360E-16  -2.17963626666667E-01  -2.17963626666667E-01   0.00000000000000E+00   0.00000000000000E+00
     -1.21281953908252E-08  -9.38680956721983E-17  -1.21281954846933E-08  -1.96880800118801E-16
      2.83653807407407E-01
      0.00000000000000E+00   0.00000000000000E+00   0.00000000000000E+00   0.00000000000000E+00   0.00000000000000E+00
      0.00000000000000E+00   0.00000000000000E+00   3.25829001266112E-16   0.00000000000000E+00   0.00000000000000E+00
      0.00000000000000E+00   0.00000000000000E+00   1.28216018871634E-08  -9.09891276272136E-16   1.28216009772721E-08
     -1.17129719528101E-16  -2.55288426666667E-01  -2.55288426666667E-01   0.00000000000000E+00   0.00000000000000E+00
     -1.28216008387577E-08  -7.39735482009115E-17  -1.28216009127313E-08  -2.10308548287094E-16
      3.08537007407408E-01
      0.00000000000000E+00   0.00000000000000E+00   0.00000000000000E+00   0.00000000000000E+00   0.00000000000000E+00
      0.00000000000000E+00   0.00000000000000E+00   3.33846995914499E-16   0.00000000000000E+00   0.00000000000000E+00
      0.00000000000000E+00   0.00000000000000E+00   1.32239009825229E-08   1.78104452227199E-17   1.32239010003333E-08
     -1.17122579307756E-16  -2.77683306666667E-01  -2.77683306666667E-01   0.00000000000000E+00   0.00000000000000E+00
     -1.32239009799102E-08  -2.06896835533697E-17  -1.32239010005999E-08  -2.18330717195112E-16
      3.41714607407408E-01
      0.00000000000000E+00   0.00000000000000E+00   0.00000000000000E+00   0.00000000000000E+00   0.00000000000000E+00
      0.00000000000000E+00   0.00000000000000E+00   3.44498304523997E-16   0.00000000000000E+00   0.00000000000000E+00
      0.00000000000000E+00   0.00000000000000E+00   1.37385350283015E-08  -1.08343748440981E-16   1.37385349199578E-08
     -1.17113138878171E-16  -3.07543146666667E-01  -3.07543146666667E-01   0.00000000000000E+00   0.00000000000000E+00
     -1.37385348170655E-08  -1.30282937762961E-16  -1.37385349473484E-08  -2.28988490776690E-16
      3.90375087407408E-01
      0.00000000000000E+00   0.00000000000000E+00   0.00000000000000E+00   0.00000000000000E+00   0.00000000000000E+00
      0.00000000000000E+00   0.00000000000000E+00   3.60043000792103E-16   0.00000000000000E+00   0.00000000000000E+00
      0.00000000000000E+00   0.00000000000000E+00   1.44377935742538E-08  -5.98267140638613E-16   1.44377929759866E-08
     -1.17099447361567E-16  -3.51337578666667E-01  -3.51337578666667E-01   0.00000000000000E+00   0.00000000000000E+00
     -1.44377948368726E-08   4.54628120537037E-14  -1.44377493740606E-08  -2.44543983958891E-16
      4.15375087407408E-01
      0.00000000000000E+00   0.00000000000000E+00   0.00000000000000E+00   0.00000000000000E+00   0.00000000000000E+00
      0.00000000000000E+00   0.00000000000000E+00   3.67995303412012E-16   0.00000000000000E+00   0.00000000000000E+00
      0.00000000000000E+00   0.00000000000000E+00   1.47719145895349E-08   1.18061151304282E-15   1.47719157701464E-08
     -1.17092480232411E-16  -3.73837578666667E-01  -3.73837578666667E-01   0.00000000000000E+00   0.00000000000000E+00
     -1.47719155853057E-08   1.22839786778332E-14  -1.47719033013270E-08  -2.52502258766709E-16
      4.48708420740741E-01
      0.00000000000000E+00   0.00000000000000E+00   0.00000000000000E+00   0.00000000000000E+00   0.00000000000000E+00
      0.00000000000000E+00   0.00000000000000E+00   3.78564088483543E-16   0.00000000000000E+00   0.00000000000000E+00
      0.00000000000000E+00   0.00000000000000E+00   1.52068868923476E-08   3.95485729918129E-15   1.52068908472049E-08
     -1.17083257511858E-16  -4.03837578666667E-01  -4.03837578666667E-01   0.00000000000000E+00   0.00000000000000E+00
     -1.52068910143434E-08  -4.87749141312391E-14  -1.52069397892575E-08  -2.63079314225897E-16
      4.88708420740741E-01
      0.00000000000000E+00   0.00000000000000E+00   0.00000000000000E+00   0.00000000000000E+00   0.00000000000000E+00
      0.00000000000000E+00   0.00000000000000E+00   3.91196900855833E-16   0.00000000000000E+00   0.00000000000000E+00
      0.00000000000000E+00   0.00000000000000E+00   1.57001565681755E-08  -7.77403638553993E-14   1.57000788278117E-08
     -1.17072285977054E-16  -4.39837578666667E-01  -4.39837578666667E-01   0.00000000000000E+00   0.00000000000000E+00
     -1.57000776096147E-08  -5.54130691804981E-14  -1.57001330226839E-08  -2.75722383495629E-16
      5.31375087407408E-01
      0.00000000000000E+00   0.00000000000000E+00   0.00000000000000E+00   0.00000000000000E+00   0.00000000000000E+00
      0.00000000000000E+00   0.00000000000000E+00   4.04614667030567E-16   0.00000000000000E+00   0.00000000000000E+00
      0.00000000000000E+00   0.00000000000000E+00   1.62196322392622E-08   1.99133008768895E-13   1.62198313722709E-08
     -1.17060691793267E-16  -4.78237578666667E-01  -4.78237578666667E-01   0.00000000000000E+00   0.00000000000000E+00
     -1.62198337915504E-08  -1.27153558803518E-13  -1.62199609451092E-08  -2.89151348152445E-16
      5.74041754074074E-01
      0.00000000000000E+00   0.00000000000000E+00   0.00000000000000E+00   0.00000000000000E+00   0.00000000000000E+00
      0.00000000000000E+00   0.00000000000000E+00   4.17975907755634E-16   0.00000000000000E+00   0.00000000000000E+00
      0.00000000000000E+00   0.00000000000000E+00   1.67341142464266E-08   1.86757025511847E-15   1.67341161139968E-08
     -1.17049203574905E-16  -5.16637578666667E-01  -5.16637578666667E-01   0.00000000000000E+00   0.00000000000000E+00
     -1.67341171672633E-08  -1.14027931610971E-13  -1.67342311951949E-08  -3.02523945117486E-16
      5.96797309629630E-01
      0.00000000000000E+00   0.00000000000000E+00   0.00000000000000E+00   0.00000000000000E+00   0.00000000000000E+00
      0.00000000000000E+00   0.00000000000000E+00   4.25079605305231E-16   0.00000000000000E+00   0.00000000000000E+00
      0.00000000000000E+00   0.00000000000000E+00   1.70117046943794E-08   6.63480396652304E-14   1.70117710424191E-08
     -1.17043117841058E-16  -5.37117578666667E-01  -5.37117578666667E-01   0.00000000000000E+00   0.00000000000000E+00
     -1.70117732658214E-08  -1.44373072674441E-13  -1.70119176388941E-08  -3.09633736678416E-16
      6.08175087407408E-01
      0.00000000000000E+00   0.00000000000000E+00   0.00000000000000E+00   0.00000000000000E+00   0.00000000000000E+00
      0.00000000000000E+00   0.00000000000000E+00   4.28625774806574E-16   0.00000000000000E+00   0.00000000000000E+00
      0.00000000000000E+00   0.00000000000000E+00   1.71504052296296E-08   1.30989256666863E-15   1.71504065395222E-08
     -1.17040085413292E-16  -5.47357578666667E-01  -5.47357578666667E-01   0.00000000000000E+00   0.00000000000000E+00
     -1.71504079613888E-08  -2.55344723136363E-13  -1.71506633061119E-08  -3.13182960357394E-16
      6.20311383703704E-01
      0.00000000000000E+00   0.00000000000000E+00   0.00000000000000E+00   0.00000000000000E+00   0.00000000000000E+00
      0.00000000000000E+00   0.00000000000000E+00   4.32404242199157E-16   0.00000000000000E+00   0.00000000000000E+00
      0.00000000000000E+00   0.00000000000000E+00   1.72988841688312E-08   1.00184596922552E-15   1.72988851706771E-08
     -1.17036858345195E-16  -5.58280245333334E-01  -5.58280245333334E-01   0.00000000000000E+00   0.00000000000000E+00
     -1.72988844099916E-08  -3.25926445425713E-13  -1.72992103364370E-08  -3.16964688740931E-16
      6.41347630617284E-01
      0.00000000000000E+00   0.00000000000000E+00   0.00000000000000E+00   0.00000000000000E+00   0.00000000000000E+00
      0.00000000000000E+00   0.00000000000000E+00   4.38943660728514E-16   0.00000000000000E+00   0.00000000000000E+00
      0.00000000000000E+00   0.00000000000000E+00   1.75577842066981E-08  -9.71316048289039E-16   1.75577832353820E-08
     -1.17031282817995E-16  -5.77212867555556E-01  -5.77212867555556E-01   0.00000000000000E+00   0.00000000000000E+00
     -1.75577840443719E-08  -4.72923173322389E-15  -1.75577887736036E-08  -3.23509762976308E-16
      6.77810458600824E-01
      0.00000000000000E+00   0.00000000000000E+00   0.00000000000000E+00   0.00000000000000E+00   0.00000000000000E+00
      0.00000000000000E+00   0.00000000000000E+00   4.50249424012939E-16   0.00000000000000E+00   0.00000000000000E+00
      0.00000000000000E+00   0.00000000000000E+00   1.80141830621051E-08   9.89148091592221E-16   1.80141840512532E-08
     -1.17021671325847E-16  -6.10029412740741E-01  -6.10029412740741E-01   0.00000000000000E+00   0.00000000000000E+00
     -1.80141839324355E-08  -2.09908245013140E-13  -1.80143938406805E-08  -3.34825329378227E-16
      7.02119010589850E-01
      0.00000000000000E+00   0.00000000000000E+00   0.00000000000000E+00   0.00000000000000E+00   0.00000000000000E+00
      0.00000000000000E+00   0.00000000000000E+00   4.57766457502235E-16   0.00000000000000E+00   0.00000000000000E+00
      0.00000000000000E+00   0.00000000000000E+00   1.83224210665004E-08  -1.44337420801043E-16   1.83224209221630E-08
     -1.17015299682892E-16  -6.31907109530865E-01  -6.31907109530865E-01   0.00000000000000E+00   0.00000000000000E+00
     -1.83224219893473E-08  -4.21780590311694E-13  -1.83228437699376E-08  -3.42348894275423E-16
      7.26427562578876E-01
      0.00000000000000E+00   0.00000000000000E+00   0.00000000000000E+00   0.00000000000000E+00   0.00000000000000E+00
      0.00000000000000E+00   0.00000000000000E+00   4.65267737683196E-16   0.00000000000000E+00   0.00000000000000E+00
      0.00000000000000E+00   0.00000000000000E+00   1.86344897159896E-08  -3.65908662602502E-16   1.86344893500810E-08
     -1.17008955909859E-16  -6.53784806320988E-01  -6.53784806320988E-01   0.00000000000000E+00   0.00000000000000E+00
     -1.86344899126996E-08  -3.78203577262713E-13  -1.86348681162768E-08  -3.49856697355133E-16
      7.50736114567902E-01
      0.00000000000000E+00   0.00000000000000E+00   0.00000000000000E+00   0.00000000000000E+00   0.00000000000000E+00
      0.00000000000000E+00   0.00000000000000E+00   4.72753560954464E-16   0.00000000000000E+00   0.00000000000000E+00
      0.00000000000000E+00   0.00000000000000E+00   1.89493820190803E-08   1.10752890266845E-15   1.89493831266092E-08
     -1.17002639191619E-16  -6.75662503111112E-01  -6.75662503111112E-01   0.00000000000000E+00   0.00000000000000E+00
     -1.89493819919703E-08   7.22572633472321E-13  -1.89486594193369E-08  -3.57349027587845E-16
      7.83147517219936E-01
      0.00000000000000E+00   0.00000000000000E+00   0.00000000000000E+00   0.00000000000000E+00   0.00000000000000E+00
      0.00000000000000E+00   0.00000000000000E+00   4.82711083772983E-16   0.00000000000000E+00   0.00000000000000E+00
      0.00000000000000E+00   0.00000000000000E+00   1.93721974226832E-08  -1.20770196570638E-14   1.93721853456636E-08
     -1.16994257646260E-16  -7.04832765497943E-01  -7.04832765497943E-01   0.00000000000000E+00   0.00000000000000E+00
     -1.93721848633332E-08  -1.78267911077879E-13  -1.93723631312442E-08  -3.67315196434674E-16
      8.04755118987960E-01
      0.00000000000000E+00   0.00000000000000E+00   0.00000000000000E+00   0.00000000000000E+00   0.00000000000000E+00
      0.00000000000000E+00   0.00000000000000E+00   4.89334732181831E-16   0.00000000000000E+00   0.00000000000000E+00
      0.00000000000000E+00   0.00000000000000E+00   1.96567331782675E-08  -1.05254569982278E-15   1.96567321257218E-08
     -1.16988695024323E-16  -7.24279607089164E-01  -7.24279607089164E-01   0.00000000000000E+00   0.00000000000000E+00
     -1.96567325892345E-08  -6.18956822061339E-13  -1.96573515460566E-08  -3.73944588172973E-16
      8.26362720755983E-01
      0.00000000000000E+00   0.00000000000000E+00   0.00000000000000E+00   0.00000000000000E+00   0.00000000000000E+00
      0.00000000000000E+00   0.00000000000000E+00   4.95946817125821E-16   0.00000000000000E+00   0.00000000000000E+00
      0.00000000000000E+00   0.00000000000000E+00   1.99442090374847E-08  -1.63595951713957E-15   1.99442074015252E-08
     -1.16983151835868E-16  -7.43726448680385E-01  -7.43726448680385E-01   0.00000000000000E+00   0.00000000000000E+00
     -1.99442081255168E-08  -1.07963326394567E-12  -1.99452877587807E-08  -3.80562398492143E-16
      8.47970322524006E-01
      0.00000000000000E+00   0.00000000000000E+00   0.00000000000000E+00   0.00000000000000E+00   0.00000000000000E+00
      0.00000000000000E+00   0.00000000000000E+00   5.02547511774226E-16   0.00000000000000E+00   0.00000000000000E+00
      0.00000000000000E+00   0.00000000000000E+00   2.02331016108344E-08   7.50800059057595E-16   2.02331023616344E-08
     -1.16977627493096E-16  -7.63173290271606E-01  -7.63173290271606E-01   0.00000000000000E+00   0.00000000000000E+00
     -2.02331033464560E-08  -8.77137644915189E-13  -2.02339804841009E-08  -3.87168795373218E-16
      8.88304512490983E-01
      0.00000000000000E+00   0.00000000000000E+00   0.00000000000000E+00   0.00000000000000E+00   0.00000000000000E+00
      0.00000000000000E+00   0.00000000000000E+00   5.14838842611107E-16   0.00000000000000E+00   0.00000000000000E+00
      0.00000000000000E+00   0.00000000000000E+00   2.07737972758408E-08   7.02470477845569E-14   2.07738675228885E-08
     -1.16967363790226E-16  -7.99474061241885E-01  -7.99474061241885E-01   0.00000000000000E+00   0.00000000000000E+00
     -2.07738700231960E-08   1.64791442648897E-12  -2.07722221087695E-08  -3.99470696082236E-16
      9.12505026471169E-01
      0.00000000000000E+00   0.00000000000000E+00   0.00000000000000E+00   0.00000000000000E+00   0.00000000000000E+00
      0.00000000000000E+00   0.00000000000000E+00   5.22195239979016E-16   0.00000000000000E+00   0.00000000000000E+00
      0.00000000000000E+00   0.00000000000000E+00   2.10989233676835E-08  -5.92510126247166E-15   2.10989174425822E-08
     -1.16961234413831E-16  -8.21254523824052E-01  -8.21254523824052E-01   0.00000000000000E+00   0.00000000000000E+00
     -2.10989169780327E-08   7.83634316558044E-14  -2.10988386146011E-08  -4.06833382292297E-16
      9.28638702457959E-01
      0.00000000000000E+00   0.00000000000000E+00   0.00000000000000E+00   0.00000000000000E+00   0.00000000000000E+00
      0.00000000000000E+00   0.00000000000000E+00   5.27091954252889E-16   0.00000000000000E+00   0.00000000000000E+00
      0.00000000000000E+00   0.00000000000000E+00   2.13162391337398E-08  -2.00943529310579E-15   2.13162371243045E-08
     -1.16957159616954E-16  -8.35774832212164E-01  -8.35774832212164E-01   0.00000000000000E+00   0.00000000000000E+00
     -2.13162378668792E-08  -2.19832445953074E-12  -2.13184361913387E-08  -4.11734264233815E-16
      9.47999113642108E-01
      0.00000000000000E+00   0.00000000000000E+00   0.00000000000000E+00   0.00000000000000E+00   0.00000000000000E+00
      0.00000000000000E+00   0.00000000000000E+00   5.32960123588848E-16   0.00000000000000E+00   0.00000000000000E+00
      0.00000000000000E+00   0.00000000000000E+00   2.15782661873886E-08  -1.47005025480873E-15   2.15782647173384E-08
     -1.16952281524731E-16  -8.53199202277897E-01  -8.53199202277897E-01   0.00000000000000E+00   0.00000000000000E+00
     -2.15782656443808E-08  -2.84553065307287E-12  -2.15811111750338E-08  -4.17607406881537E-16
      9.67359524826257E-01
      0.00000000000000E+00   0.00000000000000E+00   0.00000000000000E+00   0.00000000000000E+00   0.00000000000000E+00
      0.00000000000000E+00   0.00000000000000E+00   5.38819776608547E-16   0.00000000000000E+00   0.00000000000000E+00
      0.00000000000000E+00   0.00000000000000E+00   2.18408552481377E-08   1.64994383531597E-15   2.18408568980815E-08
     -1.16947415729266E-16  -8.70623572343631E-01  -8.70623572343631E-01   0.00000000000000E+00   0.00000000000000E+00
     -2.18408563427870E-08  -5.42600439849163E-12  -2.18462823471855E-08  -4.23471999585680E-16
      9.93173406405122E-01
      0.00000000000000E+00   0.00000000000000E+00   0.00000000000000E+00   0.00000000000000E+00   0.00000000000000E+00
      0.00000000000000E+00   0.00000000000000E+00   5.46619552229112E-16   0.00000000000000E+00   0.00000000000000E+00
      0.00000000000000E+00   0.00000000000000E+00   2.21915218670898E-08   6.84675221663430E-15   2.21915287138420E-08
     -1.16940946389393E-16  -8.93856065764610E-01  -8.93856065764610E-01   0.00000000000000E+00   0.00000000000000E+00
     -2.21915254511369E-08   3.12643824332617E-12  -2.21883990128935E-08  -4.31278303130597E-16
      1.00000000000000E+00
      0.00000000000000E+00   0.00000000000000E+00   0.00000000000000E+00   0.00000000000000E+00   0.00000000000000E+00
      0.00000000000000E+00   0.00000000000000E+00   5.48679758566550E-16   0.00000000000000E+00   0.00000000000000E+00
      0.00000000000000E+00   0.00000000000000E+00   2.22842148487368E-08   1.72947466140526E-15   2.22842165782115E-08
     -1.16939238947734E-16  -9.00000000000000E-01  -9.00000000000000E-01   0.00000000000000E+00   0.00000000000000E+00
     -2.22842089522701E-08   7.98756373391591E-12  -2.22762213885362E-08  -4.33340224217518E-16
}
