DF-ISE text

Info {
  version   = 1.0
  type      = xyplot
  datasets  = [
    "time"
    "gate OuterVoltage" "gate InnerVoltage" "gate QuasiFermiPotential" "gate DisplacementCurrent" "gate eCurrent"
    "gate hCurrent" "gate TotalCurrent" "gate Charge" "source OuterVoltage" "source InnerVoltage"
    "source QuasiFermiPotential" "source DisplacementCurrent" "source eCurrent" "source hCurrent" "source TotalCurrent"
    "source Charge" "drain OuterVoltage" "drain InnerVoltage" "drain QuasiFermiPotential" "drain DisplacementCurrent"
    "drain eCurrent" "drain hCurrent" "drain TotalCurrent" "drain Charge" ]
  functions = [
    Time
    OuterVoltage InnerVoltage QuasiFermiPotential DisplacementCurrent eCurrent
    hCurrent TotalCurrent Charge OuterVoltage InnerVoltage
    QuasiFermiPotential DisplacementCurrent eCurrent hCurrent TotalCurrent
    Charge OuterVoltage InnerVoltage QuasiFermiPotential DisplacementCurrent
    eCurrent hCurrent TotalCurrent Charge ]
}

Data {
      0.00000000000000E+00
      0.00000000000000E+00   0.00000000000000E+00   0.00000000000000E+00   0.00000000000000E+00   0.00000000000000E+00
      0.00000000000000E+00   0.00000000000000E+00  -2.21652345404271E-16   0.00000000000000E+00   0.00000000000000E+00
      0.00000000000000E+00   0.00000000000000E+00   3.05472205754298E-20  -1.67003339565762E-31   3.05472205752628E-20
      1.11222881166646E-16   0.00000000000000E+00   0.00000000000000E+00   0.00000000000000E+00   0.00000000000000E+00
      4.64482560415111E-21  -1.49744381179320E-31   4.64482560400137E-21   1.11642192348622E-16
      0.00000000000000E+00
      0.00000000000000E+00   0.00000000000000E+00   0.00000000000000E+00   0.00000000000000E+00   0.00000000000000E+00
      0.00000000000000E+00   0.00000000000000E+00  -2.40622464494667E-16   0.00000000000000E+00   0.00000000000000E+00
      0.00000000000000E+00   0.00000000000000E+00  -1.43625463787278E-19  -1.40534163390419E-31  -1.43625463787418E-19
      1.21145866653422E-16   0.00000000000000E+00   0.00000000000000E+00   0.00000000000000E+00   0.00000000000000E+00
      3.03961913304708E-20  -1.18773855728626E-31   3.03961913303520E-20   1.20974266460657E-16
      0.00000000000000E+00
      0.00000000000000E+00   0.00000000000000E+00   0.00000000000000E+00   0.00000000000000E+00   0.00000000000000E+00
      0.00000000000000E+00   0.00000000000000E+00  -2.40622463906480E-16   0.00000000000000E+00   0.00000000000000E+00
      0.00000000000000E+00   0.00000000000000E+00   1.60666711302521E-17  -2.91838605339709E-30   1.60666711302491E-17
      1.21145866376216E-16   0.00000000000000E+00   0.00000000000000E+00   0.00000000000000E+00   0.00000000000000E+00
      4.04479847166146E-18  -6.49949067491744E-30   4.04479847165496E-18   1.20974266299135E-16
      1.00000000000000E-03
      0.00000000000000E+00   0.00000000000000E+00   0.00000000000000E+00   0.00000000000000E+00   0.00000000000000E+00
      0.00000000000000E+00   0.00000000000000E+00  -2.40915554400806E-16   0.00000000000000E+00   0.00000000000000E+00
      0.00000000000000E+00   0.00000000000000E+00  -1.19328241893414E-09  -3.74745137374381E-27  -1.19328241893414E-09
      1.21145592304461E-16   7.80000000000000E-04   7.80000000000000E-04   0.00000000000000E+00   0.00000000000000E+00
      1.20729517355316E-09   2.07956567858333E-28   1.20729517355316E-09   1.21266480265591E-16
      2.86666666666667E-03
      0.00000000000000E+00   0.00000000000000E+00   0.00000000000000E+00   0.00000000000000E+00   0.00000000000000E+00
      0.00000000000000E+00   0.00000000000000E+00  -2.41462493379025E-16   0.00000000000000E+00   0.00000000000000E+00
      0.00000000000000E+00   0.00000000000000E+00  -3.07509938316448E-09  -1.03471316268080E-26  -3.07509938316448E-09
      1.21145080436745E-16   2.23600000000000E-03   2.23600000000000E-03   0.00000000000000E+00   0.00000000000000E+00
      3.07512743997712E-09  -2.73655821549608E-26   3.07512743997712E-09   1.21811817393324E-16
      6.60000000000000E-03
      0.00000000000000E+00   0.00000000000000E+00   0.00000000000000E+00   0.00000000000000E+00   0.00000000000000E+00
      0.00000000000000E+00   0.00000000000000E+00  -2.42555737924926E-16   0.00000000000000E+00   0.00000000000000E+00
      0.00000000000000E+00   0.00000000000000E+00  -5.72871178368162E-09  -2.13115247760491E-26  -5.72871178368162E-09
      1.21144056148438E-16   5.14800000000000E-03   5.14800000000000E-03   0.00000000000000E+00   0.00000000000000E+00
      5.72915685218454E-09  -6.48048752291692E-26   5.72915685218454E-09   1.22901988688338E-16
      1.40666666666667E-02
      0.00000000000000E+00   0.00000000000000E+00   0.00000000000000E+00   0.00000000000000E+00   0.00000000000000E+00
      0.00000000000000E+00   0.00000000000000E+00  -2.44739728968419E-16   0.00000000000000E+00   0.00000000000000E+00
      0.00000000000000E+00   0.00000000000000E+00  -8.29026254778640E-09  -4.63392619982517E-26  -8.29026254778640E-09
      1.21142008700487E-16   1.09720000000000E-02   1.09720000000000E-02   0.00000000000000E+00   0.00000000000000E+00
      8.29026321032664E-09  -9.65006191521106E-26   8.29026321032664E-09   1.25080326595375E-16
      2.80044444444444E-02
      0.00000000000000E+00   0.00000000000000E+00   0.00000000000000E+00   0.00000000000000E+00   0.00000000000000E+00
      0.00000000000000E+00   0.00000000000000E+00  -2.48807837008884E-16   0.00000000000000E+00   0.00000000000000E+00
      0.00000000000000E+00   0.00000000000000E+00  -9.27749208729089E-09  -5.26856913547231E-32  -9.27749208729089E-09
      1.21138201858063E-16   2.18434666666667E-02   2.18434666666667E-02   0.00000000000000E+00   0.00000000000000E+00
      9.27749208724374E-09   5.07927758811244E-32   9.27749208724374E-09   1.29139469091880E-16
      4.84465185185185E-02
      0.00000000000000E+00   0.00000000000000E+00   0.00000000000000E+00   0.00000000000000E+00   0.00000000000000E+00
      0.00000000000000E+00   0.00000000000000E+00  -2.54754831696078E-16   0.00000000000000E+00   0.00000000000000E+00
      0.00000000000000E+00   0.00000000000000E+00  -9.05776488586823E-09  -7.68721578476248E-28  -9.05776488586823E-09
      1.21132663734400E-16   3.77882844444444E-02   3.77882844444444E-02   0.00000000000000E+00   0.00000000000000E+00
      9.05776488558038E-09   4.98718230498303E-29   9.05776488558038E-09   1.35076471550845E-16
      6.34373728395062E-02
      0.00000000000000E+00   0.00000000000000E+00   0.00000000000000E+00   0.00000000000000E+00   0.00000000000000E+00
      0.00000000000000E+00   0.00000000000000E+00  -2.59101887017045E-16   0.00000000000000E+00   0.00000000000000E+00
      0.00000000000000E+00   0.00000000000000E+00  -9.00991991538186E-09   4.66636678412345E-27  -9.00991991538186E-09
      1.21128635798199E-16   4.94811508148148E-02   4.94811508148148E-02   0.00000000000000E+00   0.00000000000000E+00
      9.00991988794327E-09   4.87067704084493E-27   9.00991988794327E-09   1.39418150278510E-16
      7.54300562962963E-02
      0.00000000000000E+00   0.00000000000000E+00   0.00000000000000E+00   0.00000000000000E+00   0.00000000000000E+00
      0.00000000000000E+00   0.00000000000000E+00  -2.62571330119057E-16   0.00000000000000E+00   0.00000000000000E+00
      0.00000000000000E+00   0.00000000000000E+00  -9.08105510940452E-09   8.06677298753904E-27  -9.08105510940452E-09
      1.21125432344548E-16   5.88354439111111E-02   5.88354439111111E-02   0.00000000000000E+00   0.00000000000000E+00
      9.08105513202282E-09   7.06878814905092E-27   9.08105513202282E-09   1.42884272899128E-16
      9.46183498271605E-02
      0.00000000000000E+00   0.00000000000000E+00   0.00000000000000E+00   0.00000000000000E+00   0.00000000000000E+00
      0.00000000000000E+00   0.00000000000000E+00  -2.68107870079506E-16   0.00000000000000E+00   0.00000000000000E+00
      0.00000000000000E+00   0.00000000000000E+00  -9.28874436138795E-09   4.88168082124360E-27  -9.28874436138795E-09
      1.21120339592284E-16   7.38023128651852E-02   7.38023128651852E-02   0.00000000000000E+00   0.00000000000000E+00
      9.28874488373976E-09   3.37417639283244E-27   9.28874488373976E-09   1.48417017566133E-16
      1.04852106376955E-01
      0.00000000000000E+00   0.00000000000000E+00   0.00000000000000E+00   0.00000000000000E+00   0.00000000000000E+00
      0.00000000000000E+00   0.00000000000000E+00  -2.71053603489488E-16   0.00000000000000E+00   0.00000000000000E+00
      0.00000000000000E+00   0.00000000000000E+00  -9.41689898179734E-09  -6.27691848087232E-27  -9.41689898179734E-09
      1.21117639155693E-16   8.17846429740247E-02   8.17846429740247E-02   0.00000000000000E+00   0.00000000000000E+00
      9.41689888721725E-09  -3.91666946726596E-27   9.41689888721725E-09   1.51361380085337E-16
      1.21226116856626E-01
      0.00000000000000E+00   0.00000000000000E+00   0.00000000000000E+00   0.00000000000000E+00   0.00000000000000E+00
      0.00000000000000E+00   0.00000000000000E+00  -2.75756878734025E-16   0.00000000000000E+00   0.00000000000000E+00
      0.00000000000000E+00   0.00000000000000E+00  -9.62319890244907E-09  -4.92306219945120E-26  -9.62319890244907E-09
      1.21113340088766E-16   9.45563711481679E-02   9.45563711481679E-02   0.00000000000000E+00   0.00000000000000E+00
      9.62319933197694E-09  -2.44238535238395E-26   9.62319933197694E-09   1.56063260049375E-16
      1.33233724541717E-01
      0.00000000000000E+00   0.00000000000000E+00   0.00000000000000E+00   0.00000000000000E+00   0.00000000000000E+00
      0.00000000000000E+00   0.00000000000000E+00  -2.79198422397610E-16   0.00000000000000E+00   0.00000000000000E+00
      0.00000000000000E+00   0.00000000000000E+00  -9.76963728642653E-09  -1.08236432142658E-31  -9.76963728642653E-09
      1.21110203726055E-16   1.03922305142540E-01   1.03922305142540E-01   0.00000000000000E+00   0.00000000000000E+00
      9.76963728582036E-09  -6.23056529822996E-32   9.76963728582036E-09   1.59504323345225E-16
      1.49243868121840E-01
      0.00000000000000E+00   0.00000000000000E+00   0.00000000000000E+00   0.00000000000000E+00   0.00000000000000E+00
      0.00000000000000E+00   0.00000000000000E+00  -2.83777549635421E-16   0.00000000000000E+00   0.00000000000000E+00
      0.00000000000000E+00   0.00000000000000E+00  -9.95310500875928E-09   8.28494533518356E-26  -9.95310500875928E-09
      1.21106042481116E-16   1.16410217135035E-01   1.16410217135035E-01   0.00000000000000E+00   0.00000000000000E+00
      9.95310591137857E-09   2.82192245707974E-26   9.95310591137857E-09   1.64083419430269E-16
      1.62051982985938E-01
      0.00000000000000E+00   0.00000000000000E+00   0.00000000000000E+00   0.00000000000000E+00   0.00000000000000E+00
      0.00000000000000E+00   0.00000000000000E+00  -2.87433170270141E-16   0.00000000000000E+00   0.00000000000000E+00
      0.00000000000000E+00   0.00000000000000E+00  -1.00919453774176E-08   1.66813722154174E-25  -1.00919453774176E-08
      1.21102729824188E-16   1.26400546729032E-01   1.26400546729032E-01   0.00000000000000E+00   0.00000000000000E+00
      1.00919456554206E-08   4.78121754591062E-26   1.00919456554206E-08   1.67739448944309E-16
      1.82544966768495E-01
      0.00000000000000E+00   0.00000000000000E+00   0.00000000000000E+00   0.00000000000000E+00   0.00000000000000E+00
      0.00000000000000E+00   0.00000000000000E+00  -2.93268411478184E-16   0.00000000000000E+00   0.00000000000000E+00
      0.00000000000000E+00   0.00000000000000E+00  -1.02995592632928E-08   3.42726620096498E-25  -1.02995592632928E-08
      1.21097458546642E-16   1.42385074079426E-01   1.42385074079426E-01   0.00000000000000E+00   0.00000000000000E+00
      1.02995593480100E-08   7.65519713778652E-26   1.02995593480100E-08   1.73576018997415E-16
      1.97573154875703E-01
      0.00000000000000E+00   0.00000000000000E+00   0.00000000000000E+00   0.00000000000000E+00   0.00000000000000E+00
      0.00000000000000E+00   0.00000000000000E+00  -2.97537151507495E-16   0.00000000000000E+00   0.00000000000000E+00
      0.00000000000000E+00   0.00000000000000E+00  -1.04380588581447E-08   5.05461718967949E-25  -1.04380588581447E-08
      1.21093614742745E-16   1.54107060803049E-01   1.54107060803049E-01   0.00000000000000E+00   0.00000000000000E+00
      1.04380592840013E-08   9.45117056269163E-26   1.04380592840013E-08   1.77846180029866E-16
      2.09595705361470E-01
      0.00000000000000E+00   0.00000000000000E+00   0.00000000000000E+00   0.00000000000000E+00   0.00000000000000E+00
      0.00000000000000E+00   0.00000000000000E+00  -3.00945965745079E-16   0.00000000000000E+00   0.00000000000000E+00
      0.00000000000000E+00   0.00000000000000E+00  -1.05513627052693E-08  -2.86483318149662E-28  -1.05513627052693E-08
      1.21090552524767E-16   1.63484650181947E-01   1.63484650181947E-01   0.00000000000000E+00   0.00000000000000E+00
      1.05513627051778E-08   2.30294494142241E-29   1.05513627051778E-08   1.81256360775457E-16
      2.25625772675826E-01
      0.00000000000000E+00   0.00000000000000E+00   0.00000000000000E+00   0.00000000000000E+00   0.00000000000000E+00
      0.00000000000000E+00   0.00000000000000E+00  -3.05482718342418E-16   0.00000000000000E+00   0.00000000000000E+00
      0.00000000000000E+00   0.00000000000000E+00  -1.06923414853154E-08  -1.59286364872749E-27  -1.06923414853154E-08
      1.21086486720624E-16   1.75988102687144E-01   1.75988102687144E-01   0.00000000000000E+00   0.00000000000000E+00
      1.06923414853216E-08   3.98142038464390E-29   1.06923414853216E-08   1.85795211329074E-16
      2.46999195761633E-01
      0.00000000000000E+00   0.00000000000000E+00   0.00000000000000E+00   0.00000000000000E+00   0.00000000000000E+00
      0.00000000000000E+00   0.00000000000000E+00  -3.11517315378279E-16   0.00000000000000E+00   0.00000000000000E+00
      0.00000000000000E+00   0.00000000000000E+00  -1.08833802575398E-08  -9.03686484641083E-26  -1.08833802575398E-08
      1.21081095113531E-16   1.92659372694074E-01   1.92659372694074E-01   0.00000000000000E+00   0.00000000000000E+00
      1.08833804424281E-08  -5.12188245936421E-27   1.08833804424281E-08   1.91833016201603E-16
      2.64097934230279E-01
      0.00000000000000E+00   0.00000000000000E+00   0.00000000000000E+00   0.00000000000000E+00   0.00000000000000E+00
      0.00000000000000E+00   0.00000000000000E+00  -3.16333480526017E-16   0.00000000000000E+00   0.00000000000000E+00
      0.00000000000000E+00   0.00000000000000E+00  -1.10350993219980E-08  -3.35200196730632E-29  -1.10350993219980E-08
      1.21076805185619E-16   2.05996388699618E-01   2.05996388699618E-01   0.00000000000000E+00   0.00000000000000E+00
      1.10350993219186E-08   8.68524185049863E-30   1.10350993219186E-08   1.96652029683150E-16
      2.86896252188474E-01
      0.00000000000000E+00   0.00000000000000E+00   0.00000000000000E+00   0.00000000000000E+00   0.00000000000000E+00
      0.00000000000000E+00   0.00000000000000E+00  -3.22739615201609E-16   0.00000000000000E+00   0.00000000000000E+00
      0.00000000000000E+00   0.00000000000000E+00  -1.12409921308126E-08   1.45103621413192E-25  -1.12409921308126E-08
      1.21071116298792E-16   2.23779076707010E-01   2.23779076707010E-01   0.00000000000000E+00   0.00000000000000E+00
      1.12409925921717E-08   1.44589785316480E-26   1.12409925921717E-08   2.03062276175090E-16
      3.05134906555029E-01
      0.00000000000000E+00   0.00000000000000E+00   0.00000000000000E+00   0.00000000000000E+00   0.00000000000000E+00
      0.00000000000000E+00   0.00000000000000E+00  -3.27852195739027E-16   0.00000000000000E+00   0.00000000000000E+00
      0.00000000000000E+00   0.00000000000000E+00  -1.14077199707640E-08  -3.57261665117143E-27  -1.14077199707640E-08
      1.21066589800738E-16   2.38005227112923E-01   2.38005227112923E-01   0.00000000000000E+00   0.00000000000000E+00
      1.14077199732979E-08  -7.95405842447446E-28   1.14077199732979E-08   2.08178359345742E-16
      3.31884932959311E-01
      0.00000000000000E+00   0.00000000000000E+00   0.00000000000000E+00   0.00000000000000E+00   0.00000000000000E+00
      0.00000000000000E+00   0.00000000000000E+00  -3.35331461045689E-16   0.00000000000000E+00   0.00000000000000E+00
      0.00000000000000E+00   0.00000000000000E+00  -1.16553817351159E-08  -8.30746399066421E-25  -1.16553817351159E-08
      1.21059988898038E-16   2.58870247708263E-01   2.58870247708263E-01   0.00000000000000E+00   0.00000000000000E+00
      1.16553819644650E-08  -2.22781425395753E-26   1.16553819644650E-08   2.15663029250001E-16
      3.71118305018924E-01
      0.00000000000000E+00   0.00000000000000E+00   0.00000000000000E+00   0.00000000000000E+00   0.00000000000000E+00
      0.00000000000000E+00   0.00000000000000E+00  -3.46261320047410E-16   0.00000000000000E+00   0.00000000000000E+00
      0.00000000000000E+00   0.00000000000000E+00  -1.20230683495651E-08  -3.28122870380624E-26  -1.20230683495651E-08
      1.21050385401352E-16   2.89472277914761E-01   2.89472277914761E-01   0.00000000000000E+00   0.00000000000000E+00
      1.20230684611709E-08  -7.86391570552874E-26   1.20230684611709E-08   2.26601247817242E-16
      3.96118305018924E-01
      0.00000000000000E+00   0.00000000000000E+00   0.00000000000000E+00   0.00000000000000E+00   0.00000000000000E+00
      0.00000000000000E+00   0.00000000000000E+00  -3.53202264568664E-16   0.00000000000000E+00   0.00000000000000E+00
      0.00000000000000E+00   0.00000000000000E+00  -1.22592553440382E-08  -6.74689592875715E-25  -1.22592553440382E-08
      1.21044311871560E-16   3.08972277914761E-01   3.08972277914761E-01   0.00000000000000E+00   0.00000000000000E+00
      1.22592549128213E-08  -7.36892208123679E-25   1.22592549128213E-08   2.33547715932616E-16
      4.29451638352258E-01
      0.00000000000000E+00   0.00000000000000E+00   0.00000000000000E+00   0.00000000000000E+00   0.00000000000000E+00
      0.00000000000000E+00   0.00000000000000E+00  -3.62429297905149E-16   0.00000000000000E+00   0.00000000000000E+00
      0.00000000000000E+00   0.00000000000000E+00  -1.25713737038794E-08  -1.82655294630583E-25  -1.25713737038794E-08
      1.21036266658907E-16   3.34972277914761E-01   3.34972277914761E-01   0.00000000000000E+00   0.00000000000000E+00
      1.25713752651920E-08  -1.96034124517934E-26   1.25713752651920E-08   2.42782268302213E-16
      4.54451638352258E-01
      0.00000000000000E+00   0.00000000000000E+00   0.00000000000000E+00   0.00000000000000E+00   0.00000000000000E+00
      0.00000000000000E+00   0.00000000000000E+00  -3.69329549313385E-16   0.00000000000000E+00   0.00000000000000E+00
      0.00000000000000E+00   0.00000000000000E+00  -1.28039791454452E-08   1.50710594003379E-26  -1.28039791454452E-08
      1.21030270812036E-16   3.54472277914761E-01   3.54472277914761E-01   0.00000000000000E+00   0.00000000000000E+00
      1.28039716935707E-08   1.16218593951160E-27   1.28039716935707E-08   2.49688250193067E-16
      4.87784971685591E-01
      0.00000000000000E+00   0.00000000000000E+00   0.00000000000000E+00   0.00000000000000E+00   0.00000000000000E+00
      0.00000000000000E+00   0.00000000000000E+00  -3.78504087847707E-16   0.00000000000000E+00   0.00000000000000E+00
      0.00000000000000E+00   0.00000000000000E+00  -1.31116682414743E-08  -6.44391053734370E-25  -1.31116682414743E-08
      1.21022324914091E-16   3.80472277914761E-01   3.80472277914761E-01   0.00000000000000E+00   0.00000000000000E+00
      1.31120528995054E-08  -9.92482649188490E-24   1.31120528995053E-08   2.58870504053594E-16
      5.37784971685591E-01
      0.00000000000000E+00   0.00000000000000E+00   0.00000000000000E+00   0.00000000000000E+00   0.00000000000000E+00
      0.00000000000000E+00   0.00000000000000E+00  -3.92212657523757E-16   0.00000000000000E+00   0.00000000000000E+00
      0.00000000000000E+00   0.00000000000000E+00  -1.35687456028134E-08   6.40977071931182E-24  -1.35687456028134E-08
      1.21010505251718E-16   4.19472277914761E-01   4.19472277914761E-01   0.00000000000000E+00   0.00000000000000E+00
      1.35690665581083E-08  -7.47343337334010E-25   1.35690665581083E-08   2.72590745170707E-16
      5.62784971685591E-01
      0.00000000000000E+00   0.00000000000000E+00   0.00000000000000E+00   0.00000000000000E+00   0.00000000000000E+00
      0.00000000000000E+00   0.00000000000000E+00  -3.99043832017931E-16   0.00000000000000E+00   0.00000000000000E+00
      0.00000000000000E+00   0.00000000000000E+00  -1.37959795443940E-08   3.48885937988664E-25  -1.37959795443940E-08
      1.21004638033535E-16   4.38972277914761E-01   4.38972277914761E-01   0.00000000000000E+00   0.00000000000000E+00
      1.37958662092002E-08  -1.11071306359632E-24   1.37958662092002E-08   2.79427777553604E-16
      6.02784971685591E-01
      0.00000000000000E+00   0.00000000000000E+00   0.00000000000000E+00   0.00000000000000E+00   0.00000000000000E+00
      0.00000000000000E+00   0.00000000000000E+00  -4.09942810151035E-16   0.00000000000000E+00   0.00000000000000E+00
      0.00000000000000E+00   0.00000000000000E+00  -1.41590336479708E-08   1.26248214314139E-23  -1.41590336479708E-08
      1.20995306834387E-16   4.70172277914761E-01   4.70172277914761E-01   0.00000000000000E+00   0.00000000000000E+00
      1.41592237385606E-08  -4.92820404475384E-23   1.41592237385605E-08   2.90336129149011E-16
      6.52784971685591E-01
      0.00000000000000E+00   0.00000000000000E+00   0.00000000000000E+00   0.00000000000000E+00   0.00000000000000E+00
      0.00000000000000E+00   0.00000000000000E+00  -4.23514797385014E-16   0.00000000000000E+00   0.00000000000000E+00
      0.00000000000000E+00   0.00000000000000E+00  -1.46114605842119E-08  -5.85304747921852E-23  -1.46114605842120E-08
      1.20983736199171E-16   5.09172277914761E-01   5.09172277914761E-01   0.00000000000000E+00   0.00000000000000E+00
      1.46118922380595E-08  -3.14569957323171E-22   1.46118922380591E-08   3.03919828321579E-16
      7.02784971685591E-01
      0.00000000000000E+00   0.00000000000000E+00   0.00000000000000E+00   0.00000000000000E+00   0.00000000000000E+00
      0.00000000000000E+00   0.00000000000000E+00  -4.37031528070441E-16   0.00000000000000E+00   0.00000000000000E+00
      0.00000000000000E+00   0.00000000000000E+00  -1.50644056984921E-08   7.01000459339212E-23  -1.50644056984920E-08
      1.20972263891377E-16   5.48172277914761E-01   5.48172277914761E-01   0.00000000000000E+00   0.00000000000000E+00
      1.50639326814414E-08   3.69554828505187E-24   1.50639326814414E-08   3.17448219094115E-16
      7.52784971685591E-01
      0.00000000000000E+00   0.00000000000000E+00   0.00000000000000E+00   0.00000000000000E+00   0.00000000000000E+00
      0.00000000000000E+00   0.00000000000000E+00  -4.50495078201292E-16   0.00000000000000E+00   0.00000000000000E+00
      0.00000000000000E+00   0.00000000000000E+00  -1.55176651408219E-08   2.89788751440177E-22  -1.55176651408216E-08
      1.20960884711211E-16   5.87172277914761E-01   5.87172277914761E-01   0.00000000000000E+00   0.00000000000000E+00
      1.55199307135221E-08  -1.66381204632426E-23   1.55199307135221E-08   3.30923375163832E-16
      8.02784971685591E-01
      0.00000000000000E+00   0.00000000000000E+00   0.00000000000000E+00   0.00000000000000E+00   0.00000000000000E+00
      0.00000000000000E+00   0.00000000000000E+00  -4.63907377403888E-16   0.00000000000000E+00   0.00000000000000E+00
      0.00000000000000E+00   0.00000000000000E+00  -1.59713109503319E-08  -1.84271058612674E-22  -1.59713109503321E-08
      1.20949593471652E-16   6.26172277914761E-01   6.26172277914761E-01   0.00000000000000E+00   0.00000000000000E+00
      1.59703016656483E-08   6.04040814691651E-24   1.59703016656483E-08   3.44347193173048E-16
      8.27784971685591E-01
      0.00000000000000E+00   0.00000000000000E+00   0.00000000000000E+00   0.00000000000000E+00   0.00000000000000E+00
      0.00000000000000E+00   0.00000000000000E+00  -4.70594847084206E-16   0.00000000000000E+00   0.00000000000000E+00
      0.00000000000000E+00   0.00000000000000E+00  -1.61982257041304E-08   3.99120777936972E-22  -1.61982257041300E-08
      1.20943979225418E-16   6.45672277914761E-01   6.45672277914761E-01   0.00000000000000E+00   0.00000000000000E+00
      1.61966712021447E-08   1.14393552125567E-23   1.61966712021447E-08   3.51040384888661E-16
      8.47784971685591E-01
      0.00000000000000E+00   0.00000000000000E+00   0.00000000000000E+00   0.00000000000000E+00   0.00000000000000E+00
      0.00000000000000E+00   0.00000000000000E+00  -4.75936034374938E-16   0.00000000000000E+00   0.00000000000000E+00
      0.00000000000000E+00   0.00000000000000E+00  -1.63798412442364E-08   5.25758027172973E-22  -1.63798412442359E-08
      1.20939502298693E-16   6.61272277914761E-01   6.61272277914761E-01   0.00000000000000E+00   0.00000000000000E+00
      1.63819689341295E-08  -5.34933896004113E-23   1.63819689341295E-08   3.56386131687919E-16
      8.57784971685591E-01
      0.00000000000000E+00   0.00000000000000E+00   0.00000000000000E+00   0.00000000000000E+00   0.00000000000000E+00
      0.00000000000000E+00   0.00000000000000E+00  -4.78603728718059E-16   0.00000000000000E+00   0.00000000000000E+00
      0.00000000000000E+00   0.00000000000000E+00  -1.64707020028328E-08   5.12745546045633E-22  -1.64707020028323E-08
      1.20937268548507E-16   6.69072277914761E-01   6.69072277914761E-01   0.00000000000000E+00   0.00000000000000E+00
      1.64747592519359E-08  -7.66545903991388E-23   1.64747592519358E-08   3.59056100680084E-16
      8.67784971685591E-01
      0.00000000000000E+00   0.00000000000000E+00   0.00000000000000E+00   0.00000000000000E+00   0.00000000000000E+00
      0.00000000000000E+00   0.00000000000000E+00  -4.81269509600451E-16   0.00000000000000E+00   0.00000000000000E+00
      0.00000000000000E+00   0.00000000000000E+00  -1.65615851495910E-08   2.23833224954486E-22  -1.65615851495908E-08
      1.20935037872878E-16   6.76872277914761E-01   6.76872277914761E-01   0.00000000000000E+00   0.00000000000000E+00
      1.65621645340316E-08  -1.01433457337804E-24   1.65621645340316E-08   3.61724150919030E-16
      8.85118305018925E-01
      0.00000000000000E+00   0.00000000000000E+00   0.00000000000000E+00   0.00000000000000E+00   0.00000000000000E+00
      0.00000000000000E+00   0.00000000000000E+00  -4.85885701748647E-16   0.00000000000000E+00   0.00000000000000E+00
      0.00000000000000E+00   0.00000000000000E+00  -1.67191318285449E-08  -9.34080339595609E-22  -1.67191318285459E-08
      1.20931178501367E-16   6.90392277914761E-01   6.90392277914761E-01   0.00000000000000E+00   0.00000000000000E+00
      1.67169254815635E-08   4.42122872315058E-23   1.67169254815635E-08   3.66344262432540E-16
      9.03607193907814E-01
      0.00000000000000E+00   0.00000000000000E+00   0.00000000000000E+00   0.00000000000000E+00   0.00000000000000E+00
      0.00000000000000E+00   0.00000000000000E+00  -4.90803410355775E-16   0.00000000000000E+00   0.00000000000000E+00
      0.00000000000000E+00   0.00000000000000E+00  -1.68872370829004E-08  -2.02011750473823E-21  -1.68872370829024E-08
      1.20927071591554E-16   7.04813611248095E-01   7.04813611248095E-01   0.00000000000000E+00   0.00000000000000E+00
      1.68833119674095E-08   5.75675923920168E-23   1.68833119674096E-08   3.71266131502379E-16
      9.30724230944851E-01
      0.00000000000000E+00   0.00000000000000E+00   0.00000000000000E+00   0.00000000000000E+00   0.00000000000000E+00
      0.00000000000000E+00   0.00000000000000E+00  -4.98004555724299E-16   0.00000000000000E+00   0.00000000000000E+00
      0.00000000000000E+00   0.00000000000000E+00  -1.71339328970273E-08   2.78754419360888E-22  -1.71339328970270E-08
      1.20921065751643E-16   7.25964900136983E-01   7.25964900136983E-01   0.00000000000000E+00   0.00000000000000E+00
      1.71295145235751E-08   1.83670567856652E-22   1.71295145235753E-08   3.78473338927033E-16
      9.70495885265838E-01
      0.00000000000000E+00   0.00000000000000E+00   0.00000000000000E+00   0.00000000000000E+00   0.00000000000000E+00
      0.00000000000000E+00   0.00000000000000E+00  -5.08541897012581E-16   0.00000000000000E+00   0.00000000000000E+00
      0.00000000000000E+00   0.00000000000000E+00  -1.74961376085123E-08  -3.85547640239134E-21  -1.74961376085161E-08
      1.20912293416278E-16   7.56986790507354E-01   7.56986790507354E-01   0.00000000000000E+00   0.00000000000000E+00
      1.74828026478620E-08   6.81593099199689E-20   1.74828026479302E-08   3.89019477570822E-16
      9.85247942632919E-01
      0.00000000000000E+00   0.00000000000000E+00   0.00000000000000E+00   0.00000000000000E+00   0.00000000000000E+00
      0.00000000000000E+00   0.00000000000000E+00  -5.12443143811077E-16   0.00000000000000E+00   0.00000000000000E+00
      0.00000000000000E+00   0.00000000000000E+00  -1.76306223207302E-08  -4.72946297813697E-22  -1.76306223207306E-08
      1.20909050022057E-16   7.68493395253677E-01   7.68493395253677E-01   0.00000000000000E+00   0.00000000000000E+00
      1.76305787571600E-08   1.13182927883094E-21   1.76305787571611E-08   3.92923956397713E-16
      1.00000000000000E+00
      0.00000000000000E+00   0.00000000000000E+00   0.00000000000000E+00   0.00000000000000E+00   0.00000000000000E+00
      0.00000000000000E+00   0.00000000000000E+00  -5.16340509594165E-16   0.00000000000000E+00   0.00000000000000E+00
      0.00000000000000E+00   0.00000000000000E+00  -1.77651902872023E-08  -8.06317482547525E-21  -1.77651902872104E-08
      1.20905812016092E-16   7.80000000000000E-01   7.80000000000000E-01   0.00000000000000E+00   0.00000000000000E+00
      1.77438258993529E-08  -1.09076861414500E-22   1.77438258993528E-08   3.96824536950321E-16
}
