DF-ISE text

Info {
  version   = 1.0
  type      = xyplot
  datasets  = [
    "time"
    "gate OuterVoltage" "gate InnerVoltage" "gate QuasiFermiPotential" "gate DisplacementCurrent" "gate eCurrent"
    "gate hCurrent" "gate TotalCurrent" "gate Charge" "source OuterVoltage" "source InnerVoltage"
    "source QuasiFermiPotential" "source DisplacementCurrent" "source eCurrent" "source hCurrent" "source TotalCurrent"
    "source Charge" "drain OuterVoltage" "drain InnerVoltage" "drain QuasiFermiPotential" "drain DisplacementCurrent"
    "drain eCurrent" "drain hCurrent" "drain TotalCurrent" "drain Charge" ]
  functions = [
    Time
    OuterVoltage InnerVoltage QuasiFermiPotential DisplacementCurrent eCurrent
    hCurrent TotalCurrent Charge OuterVoltage InnerVoltage
    QuasiFermiPotential DisplacementCurrent eCurrent hCurrent TotalCurrent
    Charge OuterVoltage InnerVoltage QuasiFermiPotential DisplacementCurrent
    eCurrent hCurrent TotalCurrent Charge ]
}

Data {
      0.00000000000000E+00
      0.00000000000000E+00   0.00000000000000E+00   0.00000000000000E+00   0.00000000000000E+00   0.00000000000000E+00
      0.00000000000000E+00   0.00000000000000E+00  -2.17907351644243E-16   0.00000000000000E+00   0.00000000000000E+00
      0.00000000000000E+00   0.00000000000000E+00  -4.05523105537576E-20  -1.26766382546484E-31  -4.05523105538844E-20
      1.09347325045666E-16   0.00000000000000E+00   0.00000000000000E+00   0.00000000000000E+00   0.00000000000000E+00
     -9.12666866241951E-21  -1.01845974977880E-31  -9.12666866252136E-21   1.09791031395622E-16
      0.00000000000000E+00
      0.00000000000000E+00   0.00000000000000E+00   0.00000000000000E+00   0.00000000000000E+00   0.00000000000000E+00
      0.00000000000000E+00   0.00000000000000E+00  -2.17907315342281E-16   0.00000000000000E+00   0.00000000000000E+00
      0.00000000000000E+00   0.00000000000000E+00   3.17653322993391E-17   9.83931531960368E-30   3.17653322993489E-17
      1.09347308194664E-16   0.00000000000000E+00   0.00000000000000E+00   0.00000000000000E+00   0.00000000000000E+00
      3.05486701361327E-17  -4.51985680419054E-29   3.05486701360875E-17   1.09791011958901E-16
      0.00000000000000E+00
      0.00000000000000E+00   0.00000000000000E+00   0.00000000000000E+00   0.00000000000000E+00   0.00000000000000E+00
      0.00000000000000E+00   0.00000000000000E+00  -2.17907315342251E-16   0.00000000000000E+00   0.00000000000000E+00
      0.00000000000000E+00   0.00000000000000E+00   5.33947608850158E-20   9.31397661114357E-34   5.33947608850167E-20
      1.09347308194650E-16   0.00000000000000E+00   0.00000000000000E+00   0.00000000000000E+00   0.00000000000000E+00
     -4.37076352980384E-20  -8.99645316508089E-34  -4.37076352980393E-20   1.09791011958881E-16
      1.00000000000000E-03
      0.00000000000000E+00   0.00000000000000E+00   0.00000000000000E+00   0.00000000000000E+00   0.00000000000000E+00
      0.00000000000000E+00   0.00000000000000E+00  -2.18169644219032E-16   0.00000000000000E+00   0.00000000000000E+00
      0.00000000000000E+00   0.00000000000000E+00  -2.17433028894411E-09  -7.38180650315298E-27  -2.17433028894411E-09
      1.09346843334760E-16   7.00000000000000E-04   7.00000000000000E-04   0.00000000000000E+00   0.00000000000000E+00
      2.17407499741512E-09   8.56119987613090E-28   2.17407499741512E-09   1.10053378446635E-16
      2.86666666666667E-03
      0.00000000000000E+00   0.00000000000000E+00   0.00000000000000E+00   0.00000000000000E+00   0.00000000000000E+00
      0.00000000000000E+00   0.00000000000000E+00  -2.18659178313299E-16   0.00000000000000E+00   0.00000000000000E+00
      0.00000000000000E+00   0.00000000000000E+00  -5.79998654579217E-09  -1.00651354343224E-26  -5.79998654579217E-09
      1.09345975536229E-16   2.00666666666667E-03   2.00666666666667E-03   0.00000000000000E+00   0.00000000000000E+00
      5.79999347322780E-09  -5.88574362427727E-26   5.79999347322780E-09   1.10543002484755E-16
      6.60000000000000E-03
      0.00000000000000E+00   0.00000000000000E+00   0.00000000000000E+00   0.00000000000000E+00   0.00000000000000E+00
      0.00000000000000E+00   0.00000000000000E+00  -2.19637678646074E-16   0.00000000000000E+00   0.00000000000000E+00
      0.00000000000000E+00   0.00000000000000E+00  -1.16312757901370E-08  -9.54279414132135E-27  -1.16312757901370E-08
      1.09344240177891E-16   4.62000000000000E-03   4.62000000000000E-03   0.00000000000000E+00   0.00000000000000E+00
      1.16313638297722E-08  -2.25251863917853E-26   1.16313638297722E-08   1.11521756946735E-16
      1.40666666666667E-02
      0.00000000000000E+00   0.00000000000000E+00   0.00000000000000E+00   0.00000000000000E+00   0.00000000000000E+00
      0.00000000000000E+00   0.00000000000000E+00  -2.21592442709116E-16   0.00000000000000E+00   0.00000000000000E+00
      0.00000000000000E+00   0.00000000000000E+00  -1.92096684630199E-08  -1.22529579462449E-26  -1.92096684630199E-08
      1.09340773041419E-16   9.84666666666667E-03   9.84666666666667E-03   0.00000000000000E+00   0.00000000000000E+00
      1.92096684240700E-08  -2.50225434611979E-26   1.92096684240700E-08   1.13477304905178E-16
      2.80044444444444E-02
      0.00000000000000E+00   0.00000000000000E+00   0.00000000000000E+00   0.00000000000000E+00   0.00000000000000E+00
      0.00000000000000E+00   0.00000000000000E+00  -2.25233588052859E-16   0.00000000000000E+00   0.00000000000000E+00
      0.00000000000000E+00   0.00000000000000E+00  -2.54339060702289E-08  -1.83626822240822E-27  -2.54339060702289E-08
      1.09334323625283E-16   1.96031111111111E-02   1.96031111111111E-02   0.00000000000000E+00   0.00000000000000E+00
      2.54339029513028E-08  -4.19444736311077E-27   2.54339029513028E-08   1.17120766853411E-16
      5.40216296296296E-02
      0.00000000000000E+00   0.00000000000000E+00   0.00000000000000E+00   0.00000000000000E+00   0.00000000000000E+00
      0.00000000000000E+00   0.00000000000000E+00  -2.32004818599250E-16   0.00000000000000E+00   0.00000000000000E+00
      0.00000000000000E+00   0.00000000000000E+00  -2.81281886509608E-08  -5.93450192821385E-27  -2.81281886509608E-08
      1.09322381581700E-16   3.78151407407407E-02   3.78151407407407E-02   0.00000000000000E+00   0.00000000000000E+00
      2.81281886509596E-08  -3.03598424430972E-28   2.81281886509596E-08   1.23898582030148E-16
      9.56491259259259E-02
      0.00000000000000E+00   0.00000000000000E+00   0.00000000000000E+00   0.00000000000000E+00   0.00000000000000E+00
      0.00000000000000E+00   0.00000000000000E+00  -2.42775255018209E-16   0.00000000000000E+00   0.00000000000000E+00
      0.00000000000000E+00   0.00000000000000E+00  -2.96675323129714E-08  -3.46314218338274E-26  -2.96675323129714E-08
      1.09303522724430E-16   6.69543881481481E-02   6.69543881481481E-02   0.00000000000000E+00   0.00000000000000E+00
      2.96675323129312E-08  -3.29244603183888E-27   2.96675323129312E-08   1.34683254375156E-16
      1.45649125925926E-01
      0.00000000000000E+00   0.00000000000000E+00   0.00000000000000E+00   0.00000000000000E+00   0.00000000000000E+00
      0.00000000000000E+00   0.00000000000000E+00  -2.55619096195389E-16   0.00000000000000E+00   0.00000000000000E+00
      0.00000000000000E+00   0.00000000000000E+00  -3.14391210402817E-08  -3.13004268570186E-26  -3.14391210402817E-08
      1.09281218946295E-16   1.01954388148148E-01   1.01954388148148E-01   0.00000000000000E+00   0.00000000000000E+00
      3.14391211180856E-08  -1.17052822345405E-26   3.14391211180856E-08   1.47547048382578E-16
      1.95649125925926E-01
      0.00000000000000E+00   0.00000000000000E+00   0.00000000000000E+00   0.00000000000000E+00   0.00000000000000E+00
      0.00000000000000E+00   0.00000000000000E+00  -2.68372147283808E-16   0.00000000000000E+00   0.00000000000000E+00
      0.00000000000000E+00   0.00000000000000E+00  -3.31969502819754E-08  -4.59824860793436E-25  -3.31969502819754E-08
      1.09259245554439E-16   1.36954388148148E-01   1.36954388148148E-01   0.00000000000000E+00   0.00000000000000E+00
      3.31969461116833E-08  -8.94731926911336E-26   3.31969461116833E-08   1.60321271961247E-16
      2.45649125925926E-01
      0.00000000000000E+00   0.00000000000000E+00   0.00000000000000E+00   0.00000000000000E+00   0.00000000000000E+00
      0.00000000000000E+00   0.00000000000000E+00  -2.81043140758198E-16   0.00000000000000E+00   0.00000000000000E+00
      0.00000000000000E+00   0.00000000000000E+00  -3.49461987319750E-08   1.23929157737454E-29  -3.49461987319750E-08
      1.09237564697424E-16   1.71954388148148E-01   1.71954388148148E-01   0.00000000000000E+00   0.00000000000000E+00
      3.49461987319139E-08  -2.19380439105994E-28   3.49461987319139E-08   1.73013808634334E-16
      2.95649125925926E-01
      0.00000000000000E+00   0.00000000000000E+00   0.00000000000000E+00   0.00000000000000E+00   0.00000000000000E+00
      0.00000000000000E+00   0.00000000000000E+00  -2.93639115761377E-16   0.00000000000000E+00   0.00000000000000E+00
      0.00000000000000E+00   0.00000000000000E+00  -3.66907906313819E-08  -1.08761450015341E-25  -3.66907906313819E-08
      1.09216147046491E-16   2.06954388148148E-01   2.06954388148148E-01   0.00000000000000E+00   0.00000000000000E+00
      3.66907906314482E-08   4.01821492114030E-28   3.66907906314482E-08   1.85631348435508E-16
      3.45649125925926E-01
      0.00000000000000E+00   0.00000000000000E+00   0.00000000000000E+00   0.00000000000000E+00   0.00000000000000E+00
      0.00000000000000E+00   0.00000000000000E+00  -3.06165894846273E-16   0.00000000000000E+00   0.00000000000000E+00
      0.00000000000000E+00   0.00000000000000E+00  -3.84338048706325E-08  -1.61386227037240E-25  -3.84338048706325E-08
      1.09194968891253E-16   2.41954388148148E-01   2.41954388148148E-01   0.00000000000000E+00   0.00000000000000E+00
      3.84338048604417E-08  -4.86619275953131E-26   3.84338048604417E-08   1.98179573153491E-16
      3.95649125925926E-01
      0.00000000000000E+00   0.00000000000000E+00   0.00000000000000E+00   0.00000000000000E+00   0.00000000000000E+00
      0.00000000000000E+00   0.00000000000000E+00  -3.18628380519415E-16   0.00000000000000E+00   0.00000000000000E+00
      0.00000000000000E+00   0.00000000000000E+00  -4.01777147632138E-08  -6.77821824162077E-26  -4.01777147632138E-08
      1.09174010565624E-16   2.76954388148148E-01   2.76954388148148E-01   0.00000000000000E+00   0.00000000000000E+00
      4.01777146648271E-08  -1.59089010960896E-25   4.01777146648271E-08   2.10663331332347E-16
      4.45649125925926E-01
      0.00000000000000E+00   0.00000000000000E+00   0.00000000000000E+00   0.00000000000000E+00   0.00000000000000E+00
      0.00000000000000E+00   0.00000000000000E+00  -3.31030754948105E-16   0.00000000000000E+00   0.00000000000000E+00
      0.00000000000000E+00   0.00000000000000E+00  -4.19245427649168E-08   2.09579208403195E-25  -4.19245427649168E-08
      1.09153255472442E-16   3.11954388148148E-01   3.11954388148148E-01   0.00000000000000E+00   0.00000000000000E+00
      4.19245312757806E-08  -3.65563391821212E-25   4.19245312757806E-08   2.23086775436221E-16
      4.95649125925926E-01
      0.00000000000000E+00   0.00000000000000E+00   0.00000000000000E+00   0.00000000000000E+00   0.00000000000000E+00
      0.00000000000000E+00   0.00000000000000E+00  -3.43376625179528E-16   0.00000000000000E+00   0.00000000000000E+00
      0.00000000000000E+00   0.00000000000000E+00  -4.36759680059265E-08   6.04220983264876E-25  -4.36759680059265E-08
      1.09132689399270E-16   3.46954388148148E-01   3.46954388148148E-01   0.00000000000000E+00   0.00000000000000E+00
      4.36758644315697E-08  -1.78819722896775E-23   4.36758644315697E-08   2.35453510234304E-16
      5.45649125925926E-01
      0.00000000000000E+00   0.00000000000000E+00   0.00000000000000E+00   0.00000000000000E+00   0.00000000000000E+00
      0.00000000000000E+00   0.00000000000000E+00  -3.55669126715358E-16   0.00000000000000E+00   0.00000000000000E+00
      0.00000000000000E+00   0.00000000000000E+00  -4.54333999799899E-08  -2.89313030236535E-24  -4.54333999799899E-08
      1.09112300065807E-16   3.81954388148148E-01   3.81954388148148E-01   0.00000000000000E+00   0.00000000000000E+00
      4.54324276884246E-08  -1.93554490132383E-23   4.54324276884246E-08   2.47766706258013E-16
      5.95649125925926E-01
      0.00000000000000E+00   0.00000000000000E+00   0.00000000000000E+00   0.00000000000000E+00   0.00000000000000E+00
      0.00000000000000E+00   0.00000000000000E+00  -3.67911010877651E-16   0.00000000000000E+00   0.00000000000000E+00
      0.00000000000000E+00   0.00000000000000E+00  -4.71980377245845E-08   3.81699429793384E-27  -4.71980377245845E-08
      1.09092076716316E-16   4.16954388148148E-01   4.16954388148148E-01   0.00000000000000E+00   0.00000000000000E+00
      4.71980195536856E-08   1.95667691308340E-23   4.71980195536856E-08   2.60029124773863E-16
      6.45649125925926E-01
      0.00000000000000E+00   0.00000000000000E+00   0.00000000000000E+00   0.00000000000000E+00   0.00000000000000E+00
      0.00000000000000E+00   0.00000000000000E+00  -3.80104700423553E-16   0.00000000000000E+00   0.00000000000000E+00
      0.00000000000000E+00   0.00000000000000E+00  -4.89709075588516E-08  -6.73574250386718E-25  -4.89709075588516E-08
      1.09072009911758E-16   4.51954388148148E-01   4.51954388148148E-01   0.00000000000000E+00   0.00000000000000E+00
      4.89709074177960E-08   1.37872140992978E-21   4.89709074177974E-08   2.72243194340533E-16
      6.95649125925926E-01
      0.00000000000000E+00   0.00000000000000E+00   0.00000000000000E+00   0.00000000000000E+00   0.00000000000000E+00
      0.00000000000000E+00   0.00000000000000E+00  -3.92252345537976E-16   0.00000000000000E+00   0.00000000000000E+00
      0.00000000000000E+00   0.00000000000000E+00  -5.07528972247357E-08  -1.57058956137755E-24  -5.07528972247357E-08
      1.09052091265981E-16   4.86954388148148E-01   4.86954388148148E-01   0.00000000000000E+00   0.00000000000000E+00
      5.07528907261007E-08   9.54620914855408E-22   5.07528907261016E-08   2.84411070813928E-16
      7.45649125925926E-01
      0.00000000000000E+00   0.00000000000000E+00   0.00000000000000E+00   0.00000000000000E+00   0.00000000000000E+00
      0.00000000000000E+00   0.00000000000000E+00  -4.04355862607798E-16   0.00000000000000E+00   0.00000000000000E+00
      0.00000000000000E+00   0.00000000000000E+00  -5.25447810378407E-08   7.79516105649383E-26  -5.25447810378407E-08
      1.09032313285243E-16   5.21954388148148E-01   5.21954388148148E-01   0.00000000000000E+00   0.00000000000000E+00
      5.25447809078171E-08   3.71961309770321E-23   5.25447809078171E-08   2.96534675891852E-16
      7.95649125925926E-01
      0.00000000000000E+00   0.00000000000000E+00   0.00000000000000E+00   0.00000000000000E+00   0.00000000000000E+00
      0.00000000000000E+00   0.00000000000000E+00  -4.16416963130561E-16   0.00000000000000E+00   0.00000000000000E+00
      0.00000000000000E+00   0.00000000000000E+00  -5.43472366961277E-08  -6.86673062228013E-25  -5.43472366961277E-08
      1.09012669258586E-16   5.56954388148148E-01   5.56954388148148E-01   0.00000000000000E+00   0.00000000000000E+00
      5.43472366948379E-08   1.62425058569585E-21   5.43472366948396E-08   3.08615729945846E-16
      8.45649125925926E-01
      0.00000000000000E+00   0.00000000000000E+00   0.00000000000000E+00   0.00000000000000E+00   0.00000000000000E+00
      0.00000000000000E+00   0.00000000000000E+00  -4.28437182139202E-16   0.00000000000000E+00   0.00000000000000E+00
      0.00000000000000E+00   0.00000000000000E+00  -5.61608617493743E-08  -5.34681025936020E-23  -5.61608617493744E-08
      1.08993153136849E-16   5.91954388148148E-01   5.91954388148148E-01   0.00000000000000E+00   0.00000000000000E+00
      5.61608617488509E-08   5.37015958358887E-20   5.61608617489046E-08   3.20655775574740E-16
      8.95649125925926E-01
      0.00000000000000E+00   0.00000000000000E+00   0.00000000000000E+00   0.00000000000000E+00   0.00000000000000E+00
      0.00000000000000E+00   0.00000000000000E+00  -4.40417900110930E-16   0.00000000000000E+00   0.00000000000000E+00
      0.00000000000000E+00   0.00000000000000E+00  -5.79861854662314E-08  -3.42290097616698E-23  -5.79861854662315E-08
      1.08973759456647E-16   6.26954388148148E-01   6.26954388148148E-01   0.00000000000000E+00   0.00000000000000E+00
      5.79861853898708E-08   5.26804554198798E-20   5.79861853899235E-08   3.32656199211835E-16
      9.45649125925926E-01
      0.00000000000000E+00   0.00000000000000E+00   0.00000000000000E+00   0.00000000000000E+00   0.00000000000000E+00
      0.00000000000000E+00   0.00000000000000E+00  -4.52360360654533E-16   0.00000000000000E+00   0.00000000000000E+00
      0.00000000000000E+00   0.00000000000000E+00  -5.98236800444572E-08   2.90824648502510E-25  -5.98236800444572E-08
      1.08954483236666E-16   6.61954388148148E-01   6.61954388148148E-01   0.00000000000000E+00   0.00000000000000E+00
      5.98236800461550E-08   5.18916294945369E-23   5.98236800461551E-08   3.44618249734568E-16
      9.95649125925926E-01
      0.00000000000000E+00   0.00000000000000E+00   0.00000000000000E+00   0.00000000000000E+00   0.00000000000000E+00
      0.00000000000000E+00   0.00000000000000E+00  -4.64265684589377E-16   0.00000000000000E+00   0.00000000000000E+00
      0.00000000000000E+00   0.00000000000000E+00  -6.16737688351246E-08  -1.44324235449087E-23  -6.16737688351246E-08
      1.08935319916164E-16   6.96954388148148E-01   6.96954388148148E-01   0.00000000000000E+00   0.00000000000000E+00
      6.16737608661494E-08   1.96640742288031E-19   6.16737608663460E-08   3.56543051952830E-16
      1.00000000000000E+00
      0.00000000000000E+00   0.00000000000000E+00   0.00000000000000E+00   0.00000000000000E+00   0.00000000000000E+00
      0.00000000000000E+00   0.00000000000000E+00  -4.65299933569139E-16   0.00000000000000E+00   0.00000000000000E+00
      0.00000000000000E+00   0.00000000000000E+00  -6.18353670799068E-08  -3.52770097219119E-26  -6.18353670799068E-08
      1.08933657572059E-16   7.00000000000000E-01   7.00000000000000E-01   0.00000000000000E+00   0.00000000000000E+00
      6.18353670799331E-08   1.22878221489619E-21   6.18353670799344E-08   3.57578990721151E-16
}
