DF-ISE text

Info {
  version   = 1.0
  type      = xyplot
  datasets  = [
    "time"
    "gate OuterVoltage" "gate InnerVoltage" "gate QuasiFermiPotential" "gate DisplacementCurrent" "gate eCurrent"
    "gate hCurrent" "gate TotalCurrent" "gate Charge" "source OuterVoltage" "source InnerVoltage"
    "source QuasiFermiPotential" "source DisplacementCurrent" "source eCurrent" "source hCurrent" "source TotalCurrent"
    "source Charge" "drain OuterVoltage" "drain InnerVoltage" "drain QuasiFermiPotential" "drain DisplacementCurrent"
    "drain eCurrent" "drain hCurrent" "drain TotalCurrent" "drain Charge" ]
  functions = [
    Time
    OuterVoltage InnerVoltage QuasiFermiPotential DisplacementCurrent eCurrent
    hCurrent TotalCurrent Charge OuterVoltage InnerVoltage
    QuasiFermiPotential DisplacementCurrent eCurrent hCurrent TotalCurrent
    Charge OuterVoltage InnerVoltage QuasiFermiPotential DisplacementCurrent
    eCurrent hCurrent TotalCurrent Charge ]
}

Data {
      0.00000000000000E+00
      0.00000000000000E+00   0.00000000000000E+00   0.00000000000000E+00   0.00000000000000E+00   0.00000000000000E+00
      0.00000000000000E+00   0.00000000000000E+00  -1.27976951180539E-16   0.00000000000000E+00   0.00000000000000E+00
      0.00000000000000E+00   0.00000000000000E+00  -6.53474692358322E-20  -9.03181679056849E-34  -6.53474692358331E-20
      1.62497915832238E-16   0.00000000000000E+00   0.00000000000000E+00   0.00000000000000E+00   0.00000000000000E+00
      4.08640485089478E-22  -1.26985335234595E-32   4.08640485076780E-22   1.23088008033719E-16
      0.00000000000000E+00
      0.00000000000000E+00   0.00000000000000E+00   0.00000000000000E+00   0.00000000000000E+00   0.00000000000000E+00
      0.00000000000000E+00   0.00000000000000E+00  -1.21110652269452E-16   0.00000000000000E+00   0.00000000000000E+00
      0.00000000000000E+00   0.00000000000000E+00   1.19787277083043E-19  -9.34675871804333E-34   1.19787277083042E-19
      1.78358050260733E-16   0.00000000000000E+00   0.00000000000000E+00   0.00000000000000E+00   0.00000000000000E+00
      4.43518397227896E-21  -1.66478878176007E-32   4.43518397226231E-21   1.19217627598821E-16
      0.00000000000000E+00
      0.00000000000000E+00   0.00000000000000E+00   0.00000000000000E+00   0.00000000000000E+00   0.00000000000000E+00
      0.00000000000000E+00   0.00000000000000E+00  -1.21110583834758E-16   0.00000000000000E+00   0.00000000000000E+00
      0.00000000000000E+00   0.00000000000000E+00  -2.78467393912448E-15  -1.89124347656967E-28  -2.78467393912467E-15
      1.78358083402368E-16   0.00000000000000E+00   0.00000000000000E+00   0.00000000000000E+00   0.00000000000000E+00
     -1.00169533546121E-16   1.03976822080372E-26  -1.00169533535723E-16   1.19217624966196E-16
      1.00000000000000E-03
      0.00000000000000E+00   0.00000000000000E+00   0.00000000000000E+00   0.00000000000000E+00   0.00000000000000E+00
      0.00000000000000E+00   0.00000000000000E+00  -1.21141330088007E-16   0.00000000000000E+00   0.00000000000000E+00
      0.00000000000000E+00   0.00000000000000E+00  -1.65638894790128E-10   2.24109962401573E-26  -1.65638894790128E-10
      1.78358078688645E-16   5.00000000000000E-05   5.00000000000000E-05   0.00000000000000E+00   0.00000000000000E+00
      1.23339891920110E-10  -5.48133028460313E-24   1.23339891920105E-10   1.19246145607845E-16
      3.00000000000000E-03
      0.00000000000000E+00   0.00000000000000E+00   0.00000000000000E+00   0.00000000000000E+00   0.00000000000000E+00
      0.00000000000000E+00   0.00000000000000E+00  -1.21202812268006E-16   0.00000000000000E+00   0.00000000000000E+00
      0.00000000000000E+00   0.00000000000000E+00  -4.95450811714577E-10  -2.49913372493619E-26  -4.95450811714577E-10
      1.78358069271275E-16   1.50000000000000E-04   1.50000000000000E-04   0.00000000000000E+00   0.00000000000000E+00
      4.95450814911994E-10   6.28921806536928E-27   4.95450814911994E-10   1.19303186935503E-16
      7.00000000000000E-03
      0.00000000000000E+00   0.00000000000000E+00   0.00000000000000E+00   0.00000000000000E+00   0.00000000000000E+00
      0.00000000000000E+00   0.00000000000000E+00  -1.21325751377409E-16   0.00000000000000E+00   0.00000000000000E+00
      0.00000000000000E+00   0.00000000000000E+00  -1.15139013133983E-09   1.43667779629622E-26  -1.15139013133983E-09
      1.78358050499679E-16   3.50000000000000E-04   3.50000000000000E-04   0.00000000000000E+00   0.00000000000000E+00
      1.15139006668147E-09  -3.83159213857415E-27   1.15139006668147E-09   1.19417269684267E-16
      1.50000000000000E-02
      0.00000000000000E+00   0.00000000000000E+00   0.00000000000000E+00   0.00000000000000E+00   0.00000000000000E+00
      0.00000000000000E+00   0.00000000000000E+00  -1.21571519860980E-16   0.00000000000000E+00   0.00000000000000E+00
      0.00000000000000E+00   0.00000000000000E+00  -2.44714824582372E-09   1.49026484868725E-28  -2.44714824582372E-09
      1.78358013232598E-16   7.50000000000000E-04   7.50000000000000E-04   0.00000000000000E+00   0.00000000000000E+00
      2.44714745940121E-09   4.81653085459768E-28   2.44714745940121E-09   1.19645435510728E-16
      3.10000000000000E-02
      0.00000000000000E+00   0.00000000000000E+00   0.00000000000000E+00   0.00000000000000E+00   0.00000000000000E+00
      0.00000000000000E+00   0.00000000000000E+00  -1.22062621666200E-16   0.00000000000000E+00   0.00000000000000E+00
      0.00000000000000E+00   0.00000000000000E+00  -4.97435508458657E-09   7.22218229626835E-28  -4.97435508458657E-09
      1.78357939795755E-16   1.55000000000000E-03   1.55000000000000E-03   0.00000000000000E+00   0.00000000000000E+00
      4.97434330638998E-09   4.77420974468276E-27   4.97434330638998E-09   1.20101767826715E-16
      6.30000000000000E-02
      0.00000000000000E+00   0.00000000000000E+00   0.00000000000000E+00   0.00000000000000E+00   0.00000000000000E+00
      0.00000000000000E+00   0.00000000000000E+00  -1.23043114231401E-16   0.00000000000000E+00   0.00000000000000E+00
      0.00000000000000E+00   0.00000000000000E+00  -9.77681596460935E-09   2.05571370153815E-27  -9.77681596460935E-09
      1.78357797215384E-16   3.15000000000000E-03   3.15000000000000E-03   0.00000000000000E+00   0.00000000000000E+00
      9.77662756825972E-09   4.24033294357817E-26   9.77662756825972E-09   1.21014430042757E-16
      1.13000000000000E-01
      0.00000000000000E+00   0.00000000000000E+00   0.00000000000000E+00   0.00000000000000E+00   0.00000000000000E+00
      0.00000000000000E+00   0.00000000000000E+00  -1.24570700356389E-16   0.00000000000000E+00   0.00000000000000E+00
      0.00000000000000E+00   0.00000000000000E+00  -1.66408129088863E-08   5.34751448694533E-27  -1.66408129088863E-08
      1.78357585369419E-16   5.65000000000000E-03   5.65000000000000E-03   0.00000000000000E+00   0.00000000000000E+00
      1.66395633421400E-08   2.15266059684714E-25   1.66395633421400E-08   1.22440435375189E-16
      1.63000000000000E-01
      0.00000000000000E+00   0.00000000000000E+00   0.00000000000000E+00   0.00000000000000E+00   0.00000000000000E+00
      0.00000000000000E+00   0.00000000000000E+00  -1.26093089987037E-16   0.00000000000000E+00   0.00000000000000E+00
      0.00000000000000E+00   0.00000000000000E+00  -2.27819087133883E-08   8.60792443663370E-26  -2.27819087133883E-08
      1.78357385969025E-16   8.15000000000000E-03   8.15000000000000E-03   0.00000000000000E+00   0.00000000000000E+00
      2.27802058380852E-08  -1.11362012778976E-24   2.27802058380852E-08   1.23866368575743E-16
      2.13000000000000E-01
      0.00000000000000E+00   0.00000000000000E+00   0.00000000000000E+00   0.00000000000000E+00   0.00000000000000E+00
      0.00000000000000E+00   0.00000000000000E+00  -1.27610509828484E-16   0.00000000000000E+00   0.00000000000000E+00
      0.00000000000000E+00   0.00000000000000E+00  -2.82646396540126E-08   4.08508403829205E-27  -2.82646396540126E-08
      1.78357198024406E-16   1.06500000000000E-02   1.06500000000000E-02   0.00000000000000E+00   0.00000000000000E+00
      2.82630907015151E-08   1.80971620738817E-25   2.82630907015151E-08   1.25292190140929E-16
      2.63000000000000E-01
      0.00000000000000E+00   0.00000000000000E+00   0.00000000000000E+00   0.00000000000000E+00   0.00000000000000E+00
      0.00000000000000E+00   0.00000000000000E+00  -1.29123174164819E-16   0.00000000000000E+00   0.00000000000000E+00
      0.00000000000000E+00   0.00000000000000E+00  -3.31503030694334E-08   4.84752240808905E-27  -3.31503030694334E-08
      1.78357020593236E-16   1.31500000000000E-02   1.31500000000000E-02   0.00000000000000E+00   0.00000000000000E+00
      3.31488957479054E-08   1.57561101141758E-25   3.31488957479054E-08   1.26717862389845E-16
      3.13000000000000E-01
      0.00000000000000E+00   0.00000000000000E+00   0.00000000000000E+00   0.00000000000000E+00   0.00000000000000E+00
      0.00000000000000E+00   0.00000000000000E+00  -1.30631285704806E-16   0.00000000000000E+00   0.00000000000000E+00
      0.00000000000000E+00   0.00000000000000E+00  -3.74960465901556E-08   1.84400629650976E-26  -3.74960465901556E-08
      1.78356852788996E-16   1.56500000000000E-02   1.56500000000000E-02   0.00000000000000E+00   0.00000000000000E+00
      3.74947705596265E-08  -1.66817395922142E-25   3.74947705596265E-08   1.28143349392508E-16
      3.63000000000000E-01
      0.00000000000000E+00   0.00000000000000E+00   0.00000000000000E+00   0.00000000000000E+00   0.00000000000000E+00
      0.00000000000000E+00   0.00000000000000E+00  -1.32135036315954E-16   0.00000000000000E+00   0.00000000000000E+00
      0.00000000000000E+00   0.00000000000000E+00  -4.13547362263015E-08   5.78709706275485E-27  -4.13547362263015E-08
      1.78356693782540E-16   1.81500000000000E-02   1.81500000000000E-02   0.00000000000000E+00   0.00000000000000E+00
      4.13535776309356E-08   1.04378302308799E-25   4.13535776309356E-08   1.29568616920898E-16
      4.13000000000000E-01
      0.00000000000000E+00   0.00000000000000E+00   0.00000000000000E+00   0.00000000000000E+00   0.00000000000000E+00
      0.00000000000000E+00   0.00000000000000E+00  -1.33634607685758E-16   0.00000000000000E+00   0.00000000000000E+00
      0.00000000000000E+00   0.00000000000000E+00  -4.47750040021260E-08   1.09381062678094E-25  -4.47750040021260E-08
      1.78356542800991E-16   2.06500000000000E-02   2.06500000000000E-02   0.00000000000000E+00   0.00000000000000E+00
      4.47739528666371E-08  -3.57082918293742E-25   4.47739528666371E-08   1.30993632401104E-16
      4.63000000000000E-01
      0.00000000000000E+00   0.00000000000000E+00   0.00000000000000E+00   0.00000000000000E+00   0.00000000000000E+00
      0.00000000000000E+00   0.00000000000000E+00  -1.35130171930803E-16   0.00000000000000E+00   0.00000000000000E+00
      0.00000000000000E+00   0.00000000000000E+00  -4.78014351959797E-08  -9.78162084218926E-27  -4.78014351959797E-08
      1.78356399126355E-16   2.31500000000000E-02   2.31500000000000E-02   0.00000000000000E+00   0.00000000000000E+00
      4.78004780872354E-08   8.38246004777314E-26   4.78004780872354E-08   1.32418364867927E-16
      5.13000000000000E-01
      0.00000000000000E+00   0.00000000000000E+00   0.00000000000000E+00   0.00000000000000E+00   0.00000000000000E+00
      0.00000000000000E+00   0.00000000000000E+00  -1.36621892157360E-16   0.00000000000000E+00   0.00000000000000E+00
      0.00000000000000E+00   0.00000000000000E+00  -5.04747697986544E-08  -2.05046735187046E-26  -5.04747697986544E-08
      1.78356262092564E-16   2.56500000000000E-02   2.56500000000000E-02   0.00000000000000E+00   0.00000000000000E+00
      5.04739052687299E-08   9.53780814437460E-26   5.04739052687299E-08   1.33842784917584E-16
      5.63000000000000E-01
      0.00000000000000E+00   0.00000000000000E+00   0.00000000000000E+00   0.00000000000000E+00   0.00000000000000E+00
      0.00000000000000E+00   0.00000000000000E+00  -1.38109922994108E-16   0.00000000000000E+00   0.00000000000000E+00
      0.00000000000000E+00   0.00000000000000E+00  -5.28321856226368E-08  -2.08776112979468E-26  -5.28321856226368E-08
      1.78356131083856E-16   2.81500000000000E-02   2.81500000000000E-02   0.00000000000000E+00   0.00000000000000E+00
      5.28314017713111E-08   6.09093204240919E-26   5.28314017713111E-08   1.35266864666044E-16
      6.13000000000000E-01
      0.00000000000000E+00   0.00000000000000E+00   0.00000000000000E+00   0.00000000000000E+00   0.00000000000000E+00
      0.00000000000000E+00   0.00000000000000E+00  -1.39594411077430E-16   0.00000000000000E+00   0.00000000000000E+00
      0.00000000000000E+00   0.00000000000000E+00  -5.49075167484167E-08  -1.15385046754823E-26  -5.49075167484167E-08
      1.78356005531176E-16   3.06500000000000E-02   3.06500000000000E-02   0.00000000000000E+00   0.00000000000000E+00
      5.49068031318452E-08  -4.21152239438188E-27   5.49068031318452E-08   1.36690577698493E-16
      6.63000000000000E-01
      0.00000000000000E+00   0.00000000000000E+00   0.00000000000000E+00   0.00000000000000E+00   0.00000000000000E+00
      0.00000000000000E+00   0.00000000000000E+00  -1.41075495518480E-16   0.00000000000000E+00   0.00000000000000E+00
      0.00000000000000E+00   0.00000000000000E+00  -5.67315077624876E-08  -1.33310178305800E-26  -5.67315077624876E-08
      1.78355884909684E-16   3.31500000000000E-02   3.31500000000000E-02   0.00000000000000E+00   0.00000000000000E+00
      5.67308599915810E-08   4.26208486293491E-27   5.67308599915810E-08   1.38113899027112E-16
      7.13000000000000E-01
      0.00000000000000E+00   0.00000000000000E+00   0.00000000000000E+00   0.00000000000000E+00   0.00000000000000E+00
      0.00000000000000E+00   0.00000000000000E+00  -1.42553308231929E-16   0.00000000000000E+00   0.00000000000000E+00
      0.00000000000000E+00   0.00000000000000E+00  -5.83320436782293E-08  -1.21934903080426E-26  -5.83320436782293E-08
      1.78355768736773E-16   3.56500000000000E-02   3.56500000000000E-02   0.00000000000000E+00   0.00000000000000E+00
      5.83314549270090E-08   3.28813556627573E-26   5.83314549270090E-08   1.39536805051444E-16
      7.63000000000000E-01
      0.00000000000000E+00   0.00000000000000E+00   0.00000000000000E+00   0.00000000000000E+00   0.00000000000000E+00
      0.00000000000000E+00   0.00000000000000E+00  -1.44027973524020E-16   0.00000000000000E+00   0.00000000000000E+00
      0.00000000000000E+00   0.00000000000000E+00  -5.97341909290943E-08  -1.16020571850798E-26  -5.97341909290943E-08
      1.78355656572520E-16   3.81500000000000E-02   3.81500000000000E-02   0.00000000000000E+00   0.00000000000000E+00
      5.97336621866927E-08   5.95036568522971E-26   5.97336621866927E-08   1.40959273576652E-16
      8.13000000000000E-01
      0.00000000000000E+00   0.00000000000000E+00   0.00000000000000E+00   0.00000000000000E+00   0.00000000000000E+00
      0.00000000000000E+00   0.00000000000000E+00  -1.45499609980077E-16   0.00000000000000E+00   0.00000000000000E+00
      0.00000000000000E+00   0.00000000000000E+00  -6.09607799826407E-08  -1.83001530433507E-27  -6.09607799826407E-08
      1.78355548011044E-16   4.06500000000000E-02   4.06500000000000E-02   0.00000000000000E+00   0.00000000000000E+00
      6.09603012829508E-08   5.78372094489505E-26   6.09603012829508E-08   1.42381283652870E-16
      8.63000000000000E-01
      0.00000000000000E+00   0.00000000000000E+00   0.00000000000000E+00   0.00000000000000E+00   0.00000000000000E+00
      0.00000000000000E+00   0.00000000000000E+00  -1.46968330400229E-16   0.00000000000000E+00   0.00000000000000E+00
      0.00000000000000E+00   0.00000000000000E+00  -6.20324604369572E-08   4.69093445491893E-26  -6.20324604369572E-08
      1.78355442679166E-16   4.31500000000000E-02   4.31500000000000E-02   0.00000000000000E+00   0.00000000000000E+00
      6.20320302076286E-08   2.20956478755414E-25   6.20320302076286E-08   1.43802815559471E-16
      9.13000000000000E-01
      0.00000000000000E+00   0.00000000000000E+00   0.00000000000000E+00   0.00000000000000E+00   0.00000000000000E+00
      0.00000000000000E+00   0.00000000000000E+00  -1.48434242150872E-16   0.00000000000000E+00   0.00000000000000E+00
      0.00000000000000E+00   0.00000000000000E+00  -6.29679108461473E-08  -5.20234552635910E-26  -6.29679108461473E-08
      1.78355340235069E-16   4.56500000000000E-02   4.56500000000000E-02   0.00000000000000E+00   0.00000000000000E+00
      6.29675237060300E-08   6.40925935308862E-25   6.29675237060300E-08   1.45223850762533E-16
      9.63000000000000E-01
      0.00000000000000E+00   0.00000000000000E+00   0.00000000000000E+00   0.00000000000000E+00   0.00000000000000E+00
      0.00000000000000E+00   0.00000000000000E+00  -1.49897447370760E-16   0.00000000000000E+00   0.00000000000000E+00
      0.00000000000000E+00   0.00000000000000E+00  -6.37839817445143E-08  -1.03978131621484E-26  -6.37839817445143E-08
      1.78355240366662E-16   4.81500000000000E-02   4.81500000000000E-02   0.00000000000000E+00   0.00000000000000E+00
      6.37836181386888E-08  -5.11516165182513E-26   6.37836181386888E-08   1.46644371875098E-16
      1.00000000000000E+00
      0.00000000000000E+00   0.00000000000000E+00   0.00000000000000E+00   0.00000000000000E+00   0.00000000000000E+00
      0.00000000000000E+00   0.00000000000000E+00  -1.50978533980391E-16   0.00000000000000E+00   0.00000000000000E+00
      0.00000000000000E+00   0.00000000000000E+00  -6.43198918709930E-08  -8.03845949108304E-27  -6.43198918709930E-08
      1.78355167953864E-16   5.00000000000000E-02   5.00000000000000E-02   0.00000000000000E+00   0.00000000000000E+00
      6.43197567013483E-08  -4.42368257711767E-26   6.43197567013483E-08   1.47695216909450E-16
}
