DF-ISE text

Info {
  version   = 1.0
  type      = xyplot
  datasets  = [
    "time"
    "gate OuterVoltage" "gate InnerVoltage" "gate QuasiFermiPotential" "gate DisplacementCurrent" "gate eCurrent"
    "gate hCurrent" "gate TotalCurrent" "gate Charge" "source OuterVoltage" "source InnerVoltage"
    "source QuasiFermiPotential" "source DisplacementCurrent" "source eCurrent" "source hCurrent" "source TotalCurrent"
    "source Charge" "drain OuterVoltage" "drain InnerVoltage" "drain QuasiFermiPotential" "drain DisplacementCurrent"
    "drain eCurrent" "drain hCurrent" "drain TotalCurrent" "drain Charge" ]
  functions = [
    Time
    OuterVoltage InnerVoltage QuasiFermiPotential DisplacementCurrent eCurrent
    hCurrent TotalCurrent Charge OuterVoltage InnerVoltage
    QuasiFermiPotential DisplacementCurrent eCurrent hCurrent TotalCurrent
    Charge OuterVoltage InnerVoltage QuasiFermiPotential DisplacementCurrent
    eCurrent hCurrent TotalCurrent Charge ]
}

Data {
      0.00000000000000E+00
      0.00000000000000E+00   0.00000000000000E+00   0.00000000000000E+00   0.00000000000000E+00   0.00000000000000E+00
      0.00000000000000E+00   0.00000000000000E+00  -2.61939570994878E-16   0.00000000000000E+00   0.00000000000000E+00
      0.00000000000000E+00   0.00000000000000E+00   1.00576442297236E-21  -3.99263398805092E-31   1.00576442257310E-21
      1.31300418925442E-16   0.00000000000000E+00   0.00000000000000E+00   0.00000000000000E+00   0.00000000000000E+00
     -3.08012902884862E-22  -3.52193831438819E-31  -3.08012903237056E-22   1.31821249868750E-16
      0.00000000000000E+00
      0.00000000000000E+00   0.00000000000000E+00   0.00000000000000E+00   0.00000000000000E+00   0.00000000000000E+00
      0.00000000000000E+00   0.00000000000000E+00  -2.61939263512321E-16   0.00000000000000E+00   0.00000000000000E+00
      0.00000000000000E+00   0.00000000000000E+00   1.36973521153461E-15   1.30466281523024E-28   1.36973521153474E-15
      1.31300273352118E-16   0.00000000000000E+00   0.00000000000000E+00   0.00000000000000E+00   0.00000000000000E+00
      7.61658308209110E-16  -2.55477310489779E-27   7.61658308206555E-16   1.31821088004400E-16
      0.00000000000000E+00
      0.00000000000000E+00   0.00000000000000E+00   0.00000000000000E+00   0.00000000000000E+00   0.00000000000000E+00
      0.00000000000000E+00   0.00000000000000E+00  -2.61939263510430E-16   0.00000000000000E+00   0.00000000000000E+00
      0.00000000000000E+00   0.00000000000000E+00  -1.44539229289652E-20  -2.38783427338029E-33  -1.44539229289676E-20
      1.31300273351266E-16   0.00000000000000E+00   0.00000000000000E+00   0.00000000000000E+00   0.00000000000000E+00
     -9.93353828394784E-21  -7.58288461368401E-33  -9.93353828395543E-21   1.31821088003364E-16
      1.00000000000000E-03
      0.00000000000000E+00   0.00000000000000E+00   0.00000000000000E+00   0.00000000000000E+00   0.00000000000000E+00
      0.00000000000000E+00   0.00000000000000E+00  -2.62227652347052E-16   0.00000000000000E+00   0.00000000000000E+00
      0.00000000000000E+00   0.00000000000000E+00  -3.08391645527362E-10  -4.09213614175602E-28  -3.08391645527362E-10
      1.31299821273918E-16   7.80000000000000E-04   7.80000000000000E-04   0.00000000000000E+00   0.00000000000000E+00
      3.08391645388232E-10   4.05066755049782E-28   3.08391645388232E-10   1.32109818035455E-16
      2.73333333333333E-03
      0.00000000000000E+00   0.00000000000000E+00   0.00000000000000E+00   0.00000000000000E+00   0.00000000000000E+00
      0.00000000000000E+00   0.00000000000000E+00  -2.62727402288602E-16   0.00000000000000E+00   0.00000000000000E+00
      0.00000000000000E+00   0.00000000000000E+00  -7.79790164302749E-10   2.80685421590070E-28  -7.79790164302749E-10
      1.31299037991558E-16   2.13200000000000E-03   2.13200000000000E-03   0.00000000000000E+00   0.00000000000000E+00
      7.79791071681524E-10  -8.85255389764509E-28   7.79791071681524E-10   1.32610163987355E-16
      6.20000000000000E-03
      0.00000000000000E+00   0.00000000000000E+00   0.00000000000000E+00   0.00000000000000E+00   0.00000000000000E+00
      0.00000000000000E+00   0.00000000000000E+00  -2.63726432980037E-16   0.00000000000000E+00   0.00000000000000E+00
      0.00000000000000E+00   0.00000000000000E+00  -1.52448706497796E-09   6.81046053785037E-28  -1.52448706497796E-09
      1.31297472703492E-16   4.83600000000000E-03   4.83600000000000E-03   0.00000000000000E+00   0.00000000000000E+00
      1.52449904728491E-09  -9.29520436788839E-27   1.52449904728491E-09   1.33610403500147E-16
      1.31333333333333E-02
      0.00000000000000E+00   0.00000000000000E+00   0.00000000000000E+00   0.00000000000000E+00   0.00000000000000E+00
      0.00000000000000E+00   0.00000000000000E+00  -2.65722638906647E-16   0.00000000000000E+00   0.00000000000000E+00
      0.00000000000000E+00   0.00000000000000E+00  -2.45919031477130E-09   4.35050887038430E-27  -2.45919031477130E-09
      1.31294347565188E-16   1.02440000000000E-02   1.02440000000000E-02   0.00000000000000E+00   0.00000000000000E+00
      2.45919030691322E-09   9.50968620796824E-27   2.45919030691322E-09   1.35609089002839E-16
      2.60755555555556E-02
      0.00000000000000E+00   0.00000000000000E+00   0.00000000000000E+00   0.00000000000000E+00   0.00000000000000E+00
      0.00000000000000E+00   0.00000000000000E+00  -2.69442412106016E-16   0.00000000000000E+00   0.00000000000000E+00
      0.00000000000000E+00   0.00000000000000E+00  -3.17772994478450E-09   1.75473960232453E-26  -3.17772994478450E-09
      1.31288534386987E-16   2.03389333333333E-02   2.03389333333333E-02   0.00000000000000E+00   0.00000000000000E+00
      3.17772968387376E-09   3.32224252074212E-26   3.17772968387376E-09   1.39333679764074E-16
      5.02343703703704E-02
      0.00000000000000E+00   0.00000000000000E+00   0.00000000000000E+00   0.00000000000000E+00   0.00000000000000E+00
      0.00000000000000E+00   0.00000000000000E+00  -2.76364285774558E-16   0.00000000000000E+00   0.00000000000000E+00
      0.00000000000000E+00   0.00000000000000E+00  -3.46043107486070E-09  -5.46145189055071E-28  -3.46043107486070E-09
      1.31277754285519E-16   3.91828088888889E-02   3.91828088888889E-02   0.00000000000000E+00   0.00000000000000E+00
      3.46043107488283E-09   2.09024716776169E-29   3.46043107488283E-09   1.46265033882051E-16
      8.88884740740741E-02
      0.00000000000000E+00   0.00000000000000E+00   0.00000000000000E+00   0.00000000000000E+00   0.00000000000000E+00
      0.00000000000000E+00   0.00000000000000E+00  -2.87384095516593E-16   0.00000000000000E+00   0.00000000000000E+00
      0.00000000000000E+00   0.00000000000000E+00  -3.63867841594298E-09  -7.89762901223704E-32  -3.63867841594298E-09
      1.31260686563621E-16   6.93330097777778E-02   6.93330097777778E-02   0.00000000000000E+00   0.00000000000000E+00
      3.63867841593822E-09  -3.63712504580882E-33   3.63867841593822E-09   1.57300775091945E-16
      1.38888474074074E-01
      0.00000000000000E+00   0.00000000000000E+00   0.00000000000000E+00   0.00000000000000E+00   0.00000000000000E+00
      0.00000000000000E+00   0.00000000000000E+00  -3.01545960256082E-16   0.00000000000000E+00   0.00000000000000E+00
      0.00000000000000E+00   0.00000000000000E+00  -3.86455643512650E-09  -1.43871149336322E-28  -3.86455643512650E-09
      1.31238905897304E-16   1.08333009777778E-01   1.08333009777778E-01   0.00000000000000E+00   0.00000000000000E+00
      3.86455643513864E-09  -1.70055407484428E-29   3.86455643513864E-09   1.71483808468711E-16
      1.88888474074074E-01
      0.00000000000000E+00   0.00000000000000E+00   0.00000000000000E+00   0.00000000000000E+00   0.00000000000000E+00
      0.00000000000000E+00   0.00000000000000E+00  -3.15612825655495E-16   0.00000000000000E+00   0.00000000000000E+00
      0.00000000000000E+00   0.00000000000000E+00  -4.09029747888752E-09  -6.91745023481922E-27  -4.09029747888752E-09
      1.31217424683858E-16   1.47333009777778E-01   1.47333009777778E-01   0.00000000000000E+00   0.00000000000000E+00
      4.09029747897718E-09  -8.26133511320717E-29   4.09029747897718E-09   1.85571956486842E-16
      2.38888474074074E-01
      0.00000000000000E+00   0.00000000000000E+00   0.00000000000000E+00   0.00000000000000E+00   0.00000000000000E+00
      0.00000000000000E+00   0.00000000000000E+00  -3.29592963236749E-16   0.00000000000000E+00   0.00000000000000E+00
      0.00000000000000E+00   0.00000000000000E+00  -4.31637717988430E-09  -4.09917690262337E-28  -4.31637717988430E-09
      1.31196212626320E-16   1.86333009777778E-01   1.86333009777778E-01   0.00000000000000E+00   0.00000000000000E+00
      4.31637717989082E-09  -1.01080223451910E-28   4.31637717989082E-09   1.99573271542519E-16
      2.88888474074074E-01
      0.00000000000000E+00   0.00000000000000E+00   0.00000000000000E+00   0.00000000000000E+00   0.00000000000000E+00
      0.00000000000000E+00   0.00000000000000E+00  -3.43493192099019E-16   0.00000000000000E+00   0.00000000000000E+00
      0.00000000000000E+00   0.00000000000000E+00  -4.54316781320163E-09  -1.15818582349978E-25  -4.54316781320163E-09
      1.31175245207810E-16   2.25333009777778E-01   2.25333009777778E-01   0.00000000000000E+00   0.00000000000000E+00
      4.54316780478815E-09  -3.12222451902117E-26   4.54316780478815E-09   2.13494498398234E-16
      3.38888474074074E-01
      0.00000000000000E+00   0.00000000000000E+00   0.00000000000000E+00   0.00000000000000E+00   0.00000000000000E+00
      0.00000000000000E+00   0.00000000000000E+00  -3.57319229227366E-16   0.00000000000000E+00   0.00000000000000E+00
      0.00000000000000E+00   0.00000000000000E+00  -4.77096780781180E-09   2.78064524781807E-27  -4.77096780781180E-09
      1.31154502117997E-16   2.64333009777778E-01   2.64333009777778E-01   0.00000000000000E+00   0.00000000000000E+00
      4.77096780777917E-09   1.24934527468637E-27   4.77096780777917E-09   2.27341334793796E-16
      3.88888474074074E-01
      0.00000000000000E+00   0.00000000000000E+00   0.00000000000000E+00   0.00000000000000E+00   0.00000000000000E+00
      0.00000000000000E+00   0.00000000000000E+00  -3.71075929944965E-16   0.00000000000000E+00   0.00000000000000E+00
      0.00000000000000E+00   0.00000000000000E+00  -5.00002089480827E-09   3.68144836039598E-25  -5.00002089480827E-09
      1.31133966245445E-16   3.03333009777778E-01   3.03333009777778E-01   0.00000000000000E+00   0.00000000000000E+00
      5.00002073669850E-09  -8.31445316450313E-26   5.00002073669850E-09   2.41118637178395E-16
      4.38888474074074E-01
      0.00000000000000E+00   0.00000000000000E+00   0.00000000000000E+00   0.00000000000000E+00   0.00000000000000E+00
      0.00000000000000E+00   0.00000000000000E+00  -3.84767461092508E-16   0.00000000000000E+00   0.00000000000000E+00
      0.00000000000000E+00   0.00000000000000E+00  -5.23052915166520E-09  -3.59948654387842E-25  -5.23052915166520E-09
      1.31113622981243E-16   3.42333009777778E-01   3.42333009777778E-01   0.00000000000000E+00   0.00000000000000E+00
      5.23052791922378E-09  -4.85402529300342E-24   5.23052791922378E-09   2.54830579588056E-16
      4.88888474074074E-01
      0.00000000000000E+00   0.00000000000000E+00   0.00000000000000E+00   0.00000000000000E+00   0.00000000000000E+00
      0.00000000000000E+00   0.00000000000000E+00  -3.98397430386601E-16   0.00000000000000E+00   0.00000000000000E+00
      0.00000000000000E+00   0.00000000000000E+00  -5.46266252297377E-09  -4.75719255993036E-24  -5.46266252297377E-09
      1.31093459705907E-16   3.81333009777778E-01   3.81333009777778E-01   0.00000000000000E+00   0.00000000000000E+00
      5.46265708794855E-09   2.18258479610123E-22   5.46265708794876E-09   2.68480776858440E-16
      5.38888474074074E-01
      0.00000000000000E+00   0.00000000000000E+00   0.00000000000000E+00   0.00000000000000E+00   0.00000000000000E+00
      0.00000000000000E+00   0.00000000000000E+00  -4.11968983708118E-16   0.00000000000000E+00   0.00000000000000E+00
      0.00000000000000E+00   0.00000000000000E+00  -5.69656569243446E-09  -2.67166366068475E-25  -5.69656569243446E-09
      1.31073465416251E-16   4.20333009777778E-01   4.20333009777778E-01   0.00000000000000E+00   0.00000000000000E+00
      5.69656567714057E-09   1.77318853472653E-23   5.69656567714059E-09   2.82072389173349E-16
      5.88888474074074E-01
      0.00000000000000E+00   0.00000000000000E+00   0.00000000000000E+00   0.00000000000000E+00   0.00000000000000E+00
      0.00000000000000E+00   0.00000000000000E+00  -4.25484882493721E-16   0.00000000000000E+00   0.00000000000000E+00
      0.00000000000000E+00   0.00000000000000E+00  -5.93236292973155E-09  -1.08815163553714E-26  -5.93236292973155E-09
      1.31053630404553E-16   4.59333009777778E-01   4.59333009777778E-01   0.00000000000000E+00   0.00000000000000E+00
      5.93236292975300E-09   8.53217437083161E-25   5.93236292975300E-09   2.95608187457697E-16
      6.38888474074074E-01
      0.00000000000000E+00   0.00000000000000E+00   0.00000000000000E+00   0.00000000000000E+00   0.00000000000000E+00
      0.00000000000000E+00   0.00000000000000E+00  -4.38947562060039E-16   0.00000000000000E+00   0.00000000000000E+00
      0.00000000000000E+00   0.00000000000000E+00  -6.17016254763133E-09  -4.98256450252389E-25  -6.17016254763133E-09
      1.31033946033959E-16   4.98333009777778E-01   4.98333009777778E-01   0.00000000000000E+00   0.00000000000000E+00
      6.17016254760288E-09   6.63918408203016E-22   6.17016254760354E-09   3.09090613903549E-16
      6.88888474074074E-01
      0.00000000000000E+00   0.00000000000000E+00   0.00000000000000E+00   0.00000000000000E+00   0.00000000000000E+00
      0.00000000000000E+00   0.00000000000000E+00  -4.52359177731701E-16   0.00000000000000E+00   0.00000000000000E+00
      0.00000000000000E+00   0.00000000000000E+00  -6.41005877650038E-09  -1.30836896567537E-24  -6.41005877650038E-09
      1.31014404675150E-16   5.37333009777778E-01   5.37333009777778E-01   0.00000000000000E+00   0.00000000000000E+00
      6.41005877645430E-09   9.20326637692723E-22   6.41005877645522E-09   3.22521830796253E-16
      7.38888474074074E-01
      0.00000000000000E+00   0.00000000000000E+00   0.00000000000000E+00   0.00000000000000E+00   0.00000000000000E+00
      0.00000000000000E+00   0.00000000000000E+00  -4.65721645831133E-16   0.00000000000000E+00   0.00000000000000E+00
      0.00000000000000E+00   0.00000000000000E+00  -6.65213601309176E-09  -5.86664005024868E-25  -6.65213601309176E-09
      1.30994999305882E-16   5.76333009777778E-01   5.76333009777778E-01   0.00000000000000E+00   0.00000000000000E+00
      6.65213586988857E-09  -2.64243228463972E-21   6.65213586988592E-09   3.35903758506648E-16
      7.88888474074074E-01
      0.00000000000000E+00   0.00000000000000E+00   0.00000000000000E+00   0.00000000000000E+00   0.00000000000000E+00
      0.00000000000000E+00   0.00000000000000E+00  -4.79036675412983E-16   0.00000000000000E+00   0.00000000000000E+00
      0.00000000000000E+00   0.00000000000000E+00  -6.89647180967303E-09  -4.69546924367087E-23  -6.89647180967308E-09
      1.30975723266720E-16   6.15333009777778E-01   6.15333009777778E-01   0.00000000000000E+00   0.00000000000000E+00
      6.89647180308678E-09   7.59575841916061E-20   6.89647180316274E-09   3.49238106389784E-16
      8.38888474074074E-01
      0.00000000000000E+00   0.00000000000000E+00   0.00000000000000E+00   0.00000000000000E+00   0.00000000000000E+00
      0.00000000000000E+00   0.00000000000000E+00  -4.92305786913829E-16   0.00000000000000E+00   0.00000000000000E+00
      0.00000000000000E+00   0.00000000000000E+00  -7.14313365788725E-09  -8.45970683594831E-24  -7.14313365788726E-09
      1.30956570801206E-16   6.54333009777778E-01   6.54333009777778E-01   0.00000000000000E+00   0.00000000000000E+00
      7.14313365789327E-09   4.76748305133157E-21   7.14313365789804E-09   3.62526398607058E-16
      8.88888474074074E-01
      0.00000000000000E+00   0.00000000000000E+00   0.00000000000000E+00   0.00000000000000E+00   0.00000000000000E+00
      0.00000000000000E+00   0.00000000000000E+00  -5.05530316451815E-16   0.00000000000000E+00   0.00000000000000E+00
      0.00000000000000E+00   0.00000000000000E+00  -7.39216695172721E-09  -1.20703844739510E-23  -7.39216695172723E-09
      1.30937538613691E-16   6.93333009777778E-01   6.93333009777778E-01   0.00000000000000E+00   0.00000000000000E+00
      7.39216695176992E-09   2.64748021358229E-21   7.39216695177256E-09   3.75769996320520E-16
      9.38888474074074E-01
      0.00000000000000E+00   0.00000000000000E+00   0.00000000000000E+00   0.00000000000000E+00   0.00000000000000E+00
      0.00000000000000E+00   0.00000000000000E+00  -5.18711471605424E-16   0.00000000000000E+00   0.00000000000000E+00
      0.00000000000000E+00   0.00000000000000E+00  -7.64362143018663E-09  -6.65504440271561E-23  -7.64362143018669E-09
      1.30918622461122E-16   7.32333009777778E-01   7.32333009777778E-01   0.00000000000000E+00   0.00000000000000E+00
      7.64362143071718E-09   2.98572259150017E-20   7.64362143074704E-09   3.88970115207607E-16
      9.88888474074074E-01
      0.00000000000000E+00   0.00000000000000E+00   0.00000000000000E+00   0.00000000000000E+00   0.00000000000000E+00
      0.00000000000000E+00   0.00000000000000E+00  -5.31850355188642E-16   0.00000000000000E+00   0.00000000000000E+00
      0.00000000000000E+00   0.00000000000000E+00  -7.89756081139060E-09  -1.12367592289339E-25  -7.89756081139060E-09
      1.30899816190180E-16   7.71333009777778E-01   7.71333009777778E-01   0.00000000000000E+00   0.00000000000000E+00
      7.89756081127384E-09   1.37832571736221E-20   7.89756081128762E-09   4.02127840490158E-16
      1.00000000000000E+00
      0.00000000000000E+00   0.00000000000000E+00   0.00000000000000E+00   0.00000000000000E+00   0.00000000000000E+00
      0.00000000000000E+00   0.00000000000000E+00  -5.34764575363204E-16   0.00000000000000E+00   0.00000000000000E+00
      0.00000000000000E+00   0.00000000000000E+00  -7.95433662379853E-09  -2.22774309634136E-23  -7.95433662379856E-09
      1.30895651303960E-16   7.80000000000000E-01   7.80000000000000E-01   0.00000000000000E+00   0.00000000000000E+00
      7.95433662345756E-09   4.75233267008351E-19   7.95433662393279E-09   4.05046230783704E-16
}
