DF-ISE text

Info {
  version   = 1.0
  type      = xyplot
  datasets  = [
    "time"
    "gate OuterVoltage" "gate InnerVoltage" "gate QuasiFermiPotential" "gate DisplacementCurrent" "gate eCurrent"
    "gate hCurrent" "gate TotalCurrent" "gate Charge" "source OuterVoltage" "source InnerVoltage"
    "source QuasiFermiPotential" "source DisplacementCurrent" "source eCurrent" "source hCurrent" "source TotalCurrent"
    "source Charge" "drain OuterVoltage" "drain InnerVoltage" "drain QuasiFermiPotential" "drain DisplacementCurrent"
    "drain eCurrent" "drain hCurrent" "drain TotalCurrent" "drain Charge" ]
  functions = [
    Time
    OuterVoltage InnerVoltage QuasiFermiPotential DisplacementCurrent eCurrent
    hCurrent TotalCurrent Charge OuterVoltage InnerVoltage
    QuasiFermiPotential DisplacementCurrent eCurrent hCurrent TotalCurrent
    Charge OuterVoltage InnerVoltage QuasiFermiPotential DisplacementCurrent
    eCurrent hCurrent TotalCurrent Charge ]
}

Data {
      0.00000000000000E+00
      0.00000000000000E+00   0.00000000000000E+00   0.00000000000000E+00   0.00000000000000E+00   0.00000000000000E+00
      0.00000000000000E+00   0.00000000000000E+00  -1.68470423264945E-16   0.00000000000000E+00   0.00000000000000E+00
      0.00000000000000E+00   0.00000000000000E+00  -8.92071426325791E-21  -4.59407267540980E-32  -8.92071426330385E-21
      8.47936499180583E-17   0.00000000000000E+00   0.00000000000000E+00   0.00000000000000E+00   0.00000000000000E+00
     -1.45605614507567E-19  -3.69304753359049E-32  -1.45605614507604E-19   8.50973114048096E-17
      0.00000000000000E+00
      0.00000000000000E+00   0.00000000000000E+00   0.00000000000000E+00   0.00000000000000E+00   0.00000000000000E+00
      0.00000000000000E+00   0.00000000000000E+00  -1.88138013493611E-16   0.00000000000000E+00   0.00000000000000E+00
      0.00000000000000E+00   0.00000000000000E+00  -1.25905760985719E-19  -4.23811563237841E-32  -1.25905760985762E-19
      9.52188248416981E-17   0.00000000000000E+00   0.00000000000000E+00   0.00000000000000E+00   0.00000000000000E+00
     -4.91415390688541E-19  -3.23171638223874E-32  -4.91415390688574E-19   9.48741960275477E-17
      0.00000000000000E+00
      0.00000000000000E+00   0.00000000000000E+00   0.00000000000000E+00   0.00000000000000E+00   0.00000000000000E+00
      0.00000000000000E+00   0.00000000000000E+00  -1.88138012392416E-16   0.00000000000000E+00   0.00000000000000E+00
      0.00000000000000E+00   0.00000000000000E+00   3.89684587500287E-18   4.60496130887843E-31   3.89684587500333E-18
      9.52188245221452E-17   0.00000000000000E+00   0.00000000000000E+00   0.00000000000000E+00   0.00000000000000E+00
     -8.87279557793642E-18   1.30897839649172E-30  -8.87279557793511E-18   9.48741958239294E-17
      1.00000000000000E-03
      0.00000000000000E+00   0.00000000000000E+00   0.00000000000000E+00   0.00000000000000E+00   0.00000000000000E+00
      0.00000000000000E+00   0.00000000000000E+00  -1.88157224486924E-16   0.00000000000000E+00   0.00000000000000E+00
      0.00000000000000E+00   0.00000000000000E+00  -8.30325542276721E-10  -4.07566363154669E-27  -8.30325542276721E-10
      9.52188065159807E-17   5.00000000000000E-05   5.00000000000000E-05   0.00000000000000E+00   0.00000000000000E+00
      5.91092719895650E-10  -2.04687997776012E-25   5.91092719895650E-10   9.48932129769316E-17
      3.00000000000000E-03
      0.00000000000000E+00   0.00000000000000E+00   0.00000000000000E+00   0.00000000000000E+00   0.00000000000000E+00
      0.00000000000000E+00   0.00000000000000E+00  -1.88195646953824E-16   0.00000000000000E+00   0.00000000000000E+00
      0.00000000000000E+00   0.00000000000000E+00  -2.46809940109699E-09   3.23691362334200E-29  -2.46809940109699E-09
      9.52187704655614E-17   1.50000000000000E-04   1.50000000000000E-04   0.00000000000000E+00   0.00000000000000E+00
      2.46809952524069E-09  -3.64277935776343E-29   2.46809952524069E-09   9.49312463917402E-17
      7.00000000000000E-03
      0.00000000000000E+00   0.00000000000000E+00   0.00000000000000E+00   0.00000000000000E+00   0.00000000000000E+00
      0.00000000000000E+00   0.00000000000000E+00  -1.88272487681729E-16   0.00000000000000E+00   0.00000000000000E+00
      0.00000000000000E+00   0.00000000000000E+00  -5.68881859505135E-09   1.93268693106752E-28  -5.68881859505135E-09
      9.52186982739462E-17   3.50000000000000E-04   3.50000000000000E-04   0.00000000000000E+00   0.00000000000000E+00
      5.68881511803981E-09   1.17165879185101E-27   5.68881511803981E-09   9.50073110400404E-17
      1.50000000000000E-02
      0.00000000000000E+00   0.00000000000000E+00   0.00000000000000E+00   0.00000000000000E+00   0.00000000000000E+00
      0.00000000000000E+00   0.00000000000000E+00  -1.88426150809143E-16   0.00000000000000E+00   0.00000000000000E+00
      0.00000000000000E+00   0.00000000000000E+00  -1.18976095785671E-08   9.87485028770180E-28  -1.18976095785671E-08
      9.52185535082754E-17   7.50000000000000E-04   7.50000000000000E-04   0.00000000000000E+00   0.00000000000000E+00
      1.18976095935299E-08   2.25777692972527E-27   1.18976095935299E-08   9.51594308026431E-17
      3.10000000000000E-02
      0.00000000000000E+00   0.00000000000000E+00   0.00000000000000E+00   0.00000000000000E+00   0.00000000000000E+00
      0.00000000000000E+00   0.00000000000000E+00  -1.88733403960791E-16   0.00000000000000E+00   0.00000000000000E+00
      0.00000000000000E+00   0.00000000000000E+00  -2.34384573071961E-08   2.49878427044213E-27  -2.34384573071961E-08
      9.52182625586584E-17   1.55000000000000E-03   1.55000000000000E-03   0.00000000000000E+00   0.00000000000000E+00
      2.34384580213599E-08   5.45391997926538E-27   2.34384580213599E-08   9.54636320635332E-17
      6.30000000000000E-02
      0.00000000000000E+00   0.00000000000000E+00   0.00000000000000E+00   0.00000000000000E+00   0.00000000000000E+00
      0.00000000000000E+00   0.00000000000000E+00  -1.89347619547800E-16   0.00000000000000E+00   0.00000000000000E+00
      0.00000000000000E+00   0.00000000000000E+00  -4.34008644146377E-08   6.22281022898595E-27  -4.34008644146377E-08
      9.52176757848220E-17   3.15000000000000E-03   3.15000000000000E-03   0.00000000000000E+00   0.00000000000000E+00
      4.34008896345230E-08   1.20165598527986E-26   4.34008896345230E-08   9.60718806032103E-17
      1.13000000000000E-01
      0.00000000000000E+00   0.00000000000000E+00   0.00000000000000E+00   0.00000000000000E+00   0.00000000000000E+00
      0.00000000000000E+00   0.00000000000000E+00  -1.90306563437006E-16   0.00000000000000E+00   0.00000000000000E+00
      0.00000000000000E+00   0.00000000000000E+00  -6.77729110089558E-08   1.42581432118601E-26  -6.77729110089558E-08
      9.52167490088713E-17   5.65000000000000E-03   5.65000000000000E-03   0.00000000000000E+00   0.00000000000000E+00
      6.77732253253483E-08   2.18176330927007E-26   6.77732253253483E-08   9.70218543294763E-17
      1.63000000000000E-01
      0.00000000000000E+00   0.00000000000000E+00   0.00000000000000E+00   0.00000000000000E+00   0.00000000000000E+00
      0.00000000000000E+00   0.00000000000000E+00  -1.91264584232050E-16   0.00000000000000E+00   0.00000000000000E+00
      0.00000000000000E+00   0.00000000000000E+00  -8.57481093066169E-08   2.36939390125834E-26  -8.57481093066169E-08
      9.52158139373416E-17   8.15000000000000E-03   8.15000000000000E-03   0.00000000000000E+00   0.00000000000000E+00
      8.57487600385405E-08   3.42301257559008E-26   8.57487600385405E-08   9.79713178476318E-17
      2.13000000000000E-01
      0.00000000000000E+00   0.00000000000000E+00   0.00000000000000E+00   0.00000000000000E+00   0.00000000000000E+00
      0.00000000000000E+00   0.00000000000000E+00  -1.92221697186561E-16   0.00000000000000E+00   0.00000000000000E+00
      0.00000000000000E+00   0.00000000000000E+00  -9.89621935393787E-08   3.40531022321773E-26  -9.89621935393787E-08
      9.52148737627669E-17   1.06500000000000E-02   1.06500000000000E-02   0.00000000000000E+00   0.00000000000000E+00
      9.89629784873001E-08   5.06313877470878E-26   9.89629784873001E-08   9.89202673062235E-17
      2.63000000000000E-01
      0.00000000000000E+00   0.00000000000000E+00   0.00000000000000E+00   0.00000000000000E+00   0.00000000000000E+00
      0.00000000000000E+00   0.00000000000000E+00  -1.93177917486829E-16   0.00000000000000E+00   0.00000000000000E+00
      0.00000000000000E+00   0.00000000000000E+00  -1.08614224716383E-07   4.89568743738994E-26  -1.08614224716383E-07
      9.52139307490405E-17   1.31500000000000E-02   1.31500000000000E-02   0.00000000000000E+00   0.00000000000000E+00
      1.08615094060665E-07   6.17967840018530E-26   1.08615094060665E-07   9.98686999686121E-17
      3.13000000000000E-01
      0.00000000000000E+00   0.00000000000000E+00   0.00000000000000E+00   0.00000000000000E+00   0.00000000000000E+00
      0.00000000000000E+00   0.00000000000000E+00  -1.94133260232267E-16   0.00000000000000E+00   0.00000000000000E+00
      0.00000000000000E+00   0.00000000000000E+00  -1.15590273049569E-07   6.26276193699674E-26  -1.15590273049569E-07
      9.52129864956268E-17   1.56500000000000E-02   1.56500000000000E-02   0.00000000000000E+00   0.00000000000000E+00
      1.15591179969507E-07   8.05334810862449E-26   1.15591179969507E-07   1.00816613923742E-16
      3.63000000000000E-01
      0.00000000000000E+00   0.00000000000000E+00   0.00000000000000E+00   0.00000000000000E+00   0.00000000000000E+00
      0.00000000000000E+00   0.00000000000000E+00  -1.95087740307077E-16   0.00000000000000E+00   0.00000000000000E+00
      0.00000000000000E+00   0.00000000000000E+00  -1.20555452967919E-07   7.66586037218556E-26  -1.20555452967919E-07
      9.52120421389556E-17   1.81500000000000E-02   1.81500000000000E-02   0.00000000000000E+00   0.00000000000000E+00
      1.20556394773517E-07   1.04934004969231E-25   1.20556394773517E-07   1.01764007895351E-16
      4.13000000000000E-01
      0.00000000000000E+00   0.00000000000000E+00   0.00000000000000E+00   0.00000000000000E+00   0.00000000000000E+00
      0.00000000000000E+00   0.00000000000000E+00  -1.96041372377089E-16   0.00000000000000E+00   0.00000000000000E+00
      0.00000000000000E+00   0.00000000000000E+00  -1.24013819891841E-07   9.38308624739378E-26  -1.24013819891841E-07
      9.52110984874999E-17   2.06500000000000E-02   2.06500000000000E-02   0.00000000000000E+00   0.00000000000000E+00
      1.24014769370403E-07   1.26078789847985E-25   1.24014769370403E-07   1.02710881078842E-16
      4.63000000000000E-01
      0.00000000000000E+00   0.00000000000000E+00   0.00000000000000E+00   0.00000000000000E+00   0.00000000000000E+00
      0.00000000000000E+00   0.00000000000000E+00  -1.96994170794526E-16   0.00000000000000E+00   0.00000000000000E+00
      0.00000000000000E+00   0.00000000000000E+00  -1.26343748381173E-07  -1.53548094121283E-25  -1.26343748381173E-07
      9.52101560954984E-17   2.31500000000000E-02   2.31500000000000E-02   0.00000000000000E+00   0.00000000000000E+00
      1.26343748377858E-07  -5.72990718206160E-26   1.26343748377858E-07   1.03657233075059E-16
      5.13000000000000E-01
      0.00000000000000E+00   0.00000000000000E+00   0.00000000000000E+00   0.00000000000000E+00   0.00000000000000E+00
      0.00000000000000E+00   0.00000000000000E+00  -1.97946149677567E-16   0.00000000000000E+00   0.00000000000000E+00
      0.00000000000000E+00   0.00000000000000E+00  -1.27854259697810E-07  -6.07444352068645E-26  -1.27854259697810E-07
      9.52092153817561E-17   2.56500000000000E-02   2.56500000000000E-02   0.00000000000000E+00   0.00000000000000E+00
      1.27854259719579E-07  -6.34357130209829E-26   1.27854259719579E-07   1.04603063752205E-16
      5.63000000000000E-01
      0.00000000000000E+00   0.00000000000000E+00   0.00000000000000E+00   0.00000000000000E+00   0.00000000000000E+00
      0.00000000000000E+00   0.00000000000000E+00  -1.98897322791831E-16   0.00000000000000E+00   0.00000000000000E+00
      0.00000000000000E+00   0.00000000000000E+00  -1.28765827227671E-07   7.71625949181521E-28  -1.28765827227671E-07
      9.52082765945085E-17   2.81500000000000E-02   2.81500000000000E-02   0.00000000000000E+00   0.00000000000000E+00
      1.28765827177559E-07   8.41532895191399E-28   1.28765827177559E-07   1.05548373282622E-16
      6.13000000000000E-01
      0.00000000000000E+00   0.00000000000000E+00   0.00000000000000E+00   0.00000000000000E+00   0.00000000000000E+00
      0.00000000000000E+00   0.00000000000000E+00  -1.99847703577297E-16   0.00000000000000E+00   0.00000000000000E+00
      0.00000000000000E+00   0.00000000000000E+00  -1.29253626124376E-07   2.88556892903290E-27  -1.29253626124376E-07
      9.52073399014172E-17   3.06500000000000E-02   3.06500000000000E-02   0.00000000000000E+00   0.00000000000000E+00
      1.29253626106707E-07   3.67015765723726E-27   1.29253626106707E-07   1.06493162041584E-16
      6.63000000000000E-01
      0.00000000000000E+00   0.00000000000000E+00   0.00000000000000E+00   0.00000000000000E+00   0.00000000000000E+00
      0.00000000000000E+00   0.00000000000000E+00  -2.00797305127247E-16   0.00000000000000E+00   0.00000000000000E+00
      0.00000000000000E+00   0.00000000000000E+00  -1.29452143804624E-07   6.27262502200632E-27  -1.29452143804624E-07
      9.52064054000939E-17   3.31500000000000E-02   3.31500000000000E-02   0.00000000000000E+00   0.00000000000000E+00
      1.29452143775965E-07   7.66102773849105E-27   1.29452143775965E-07   1.07437430590692E-16
      7.13000000000000E-01
      0.00000000000000E+00   0.00000000000000E+00   0.00000000000000E+00   0.00000000000000E+00   0.00000000000000E+00
      0.00000000000000E+00   0.00000000000000E+00  -2.01746140174624E-16   0.00000000000000E+00   0.00000000000000E+00
      0.00000000000000E+00   0.00000000000000E+00  -1.29463969884894E-07  -3.32208924820963E-27  -1.29463969884894E-07
      9.52054731368329E-17   3.56500000000000E-02   3.56500000000000E-02   0.00000000000000E+00   0.00000000000000E+00
      1.29463969876801E-07   1.81485389673147E-26   1.29463969876801E-07   1.08381179653458E-16
      7.63000000000000E-01
      0.00000000000000E+00   0.00000000000000E+00   0.00000000000000E+00   0.00000000000000E+00   0.00000000000000E+00
      0.00000000000000E+00   0.00000000000000E+00  -2.02694221081514E-16   0.00000000000000E+00   0.00000000000000E+00
      0.00000000000000E+00   0.00000000000000E+00  -1.29366546312614E-07   6.45155393457954E-27  -1.29366546312614E-07
      9.52045431208220E-17   3.81500000000000E-02   3.81500000000000E-02   0.00000000000000E+00   0.00000000000000E+00
      1.29366546315423E-07   7.21720276806645E-27   1.29366546315423E-07   1.09324410097279E-16
      8.13000000000000E-01
      0.00000000000000E+00   0.00000000000000E+00   0.00000000000000E+00   0.00000000000000E+00   0.00000000000000E+00
      0.00000000000000E+00   0.00000000000000E+00  -2.03641559824094E-16   0.00000000000000E+00   0.00000000000000E+00
      0.00000000000000E+00   0.00000000000000E+00  -1.29217436026714E-07  -7.43783605543921E-28  -1.29217436026714E-07
      9.52036153349107E-17   4.06500000000000E-02   4.06500000000000E-02   0.00000000000000E+00   0.00000000000000E+00
      1.29217436050565E-07   1.29225819246496E-26   1.29217436050565E-07   1.10267122915594E-16
      8.63000000000000E-01
      0.00000000000000E+00   0.00000000000000E+00   0.00000000000000E+00   0.00000000000000E+00   0.00000000000000E+00
      0.00000000000000E+00   0.00000000000000E+00  -2.04588167975152E-16   0.00000000000000E+00   0.00000000000000E+00
      0.00000000000000E+00   0.00000000000000E+00  -1.29058500478846E-07   5.25794557210366E-27  -1.29058500478846E-07
      9.52026897438296E-17   4.31500000000000E-02   4.31500000000000E-02   0.00000000000000E+00   0.00000000000000E+00
      1.29058500487079E-07   5.34481324088287E-27   1.29058500487079E-07   1.11209319208922E-16
      9.13000000000000E-01
      0.00000000000000E+00   0.00000000000000E+00   0.00000000000000E+00   0.00000000000000E+00   0.00000000000000E+00
      0.00000000000000E+00   0.00000000000000E+00  -2.05534056700480E-16   0.00000000000000E+00   0.00000000000000E+00
      0.00000000000000E+00   0.00000000000000E+00  -1.28919252844696E-07   5.94319813761076E-27  -1.28919252844696E-07
      9.52017663004219E-17   4.56500000000000E-02   4.56500000000000E-02   0.00000000000000E+00   0.00000000000000E+00
      1.28919252829941E-07   5.73387161169441E-27   1.28919252829941E-07   1.12151000176807E-16
      9.63000000000000E-01
      0.00000000000000E+00   0.00000000000000E+00   0.00000000000000E+00   0.00000000000000E+00   0.00000000000000E+00
      0.00000000000000E+00   0.00000000000000E+00  -2.06479236759771E-16   0.00000000000000E+00   0.00000000000000E+00
      0.00000000000000E+00   0.00000000000000E+00  -1.28819572437094E-07   7.38833596703575E-27  -1.28819572437094E-07
      9.52008449503116E-17   4.81500000000000E-02   4.81500000000000E-02   0.00000000000000E+00   0.00000000000000E+00
      1.28819572412562E-07   6.87235289124068E-27   1.28819572412562E-07   1.13092167111797E-16
      1.00000000000000E+00
      0.00000000000000E+00   0.00000000000000E+00   0.00000000000000E+00   0.00000000000000E+00   0.00000000000000E+00
      0.00000000000000E+00   0.00000000000000E+00  -2.07178219949716E-16   0.00000000000000E+00   0.00000000000000E+00
      0.00000000000000E+00   0.00000000000000E+00  -1.28779240724365E-07   1.08674424225087E-26  -1.28779240724365E-07
      9.52001644638992E-17   5.00000000000000E-02   5.00000000000000E-02   0.00000000000000E+00   0.00000000000000E+00
      1.28779542172534E-07   5.69161576789986E-27   1.28779542172534E-07   1.13788300504271E-16
}
