DF-ISE text

Info {
  version   = 1.0
  type      = xyplot
  datasets  = [
    "time"
    "gate OuterVoltage" "gate InnerVoltage" "gate QuasiFermiPotential" "gate DisplacementCurrent" "gate eCurrent"
    "gate hCurrent" "gate TotalCurrent" "gate Charge" "source OuterVoltage" "source InnerVoltage"
    "source QuasiFermiPotential" "source DisplacementCurrent" "source eCurrent" "source hCurrent" "source TotalCurrent"
    "source Charge" "drain OuterVoltage" "drain InnerVoltage" "drain QuasiFermiPotential" "drain DisplacementCurrent"
    "drain eCurrent" "drain hCurrent" "drain TotalCurrent" "drain Charge" ]
  functions = [
    Time
    OuterVoltage InnerVoltage QuasiFermiPotential DisplacementCurrent eCurrent
    hCurrent TotalCurrent Charge OuterVoltage InnerVoltage
    QuasiFermiPotential DisplacementCurrent eCurrent hCurrent TotalCurrent
    Charge OuterVoltage InnerVoltage QuasiFermiPotential DisplacementCurrent
    eCurrent hCurrent TotalCurrent Charge ]
}

Data {
      0.00000000000000E+00
      0.00000000000000E+00   0.00000000000000E+00   0.00000000000000E+00   0.00000000000000E+00   0.00000000000000E+00
      0.00000000000000E+00   0.00000000000000E+00  -2.21652345404271E-16   0.00000000000000E+00   0.00000000000000E+00
      0.00000000000000E+00   0.00000000000000E+00   3.04726670708841E-20  -1.67164148675779E-31   3.04726670707170E-20
      1.11222881166646E-16   0.00000000000000E+00   0.00000000000000E+00   0.00000000000000E+00   0.00000000000000E+00
     -9.35002105889196E-22  -1.45289437348333E-31  -9.35002106034485E-22   1.11642192348622E-16
      0.00000000000000E+00
      0.00000000000000E+00   0.00000000000000E+00   0.00000000000000E+00   0.00000000000000E+00   0.00000000000000E+00
      0.00000000000000E+00   0.00000000000000E+00  -2.21652286732394E-16   0.00000000000000E+00   0.00000000000000E+00
      0.00000000000000E+00   0.00000000000000E+00   8.52513916953912E-17   2.00362808418129E-30   8.52513916953933E-17
      1.11222853601987E-16   0.00000000000000E+00   0.00000000000000E+00   0.00000000000000E+00   0.00000000000000E+00
      5.70073418287841E-17  -6.46094582752719E-29   5.70073418287195E-17   1.11642161240855E-16
      0.00000000000000E+00
      0.00000000000000E+00   0.00000000000000E+00   0.00000000000000E+00   0.00000000000000E+00   0.00000000000000E+00
      0.00000000000000E+00   0.00000000000000E+00  -2.21652286732325E-16   0.00000000000000E+00   0.00000000000000E+00
      0.00000000000000E+00   0.00000000000000E+00  -3.06074713737435E-20  -1.58600742276972E-33  -3.06074713737451E-20
      1.11222853601954E-16   0.00000000000000E+00   0.00000000000000E+00   0.00000000000000E+00   0.00000000000000E+00
     -3.31596574111588E-20  -1.96313230687813E-33  -3.31596574111607E-20   1.11642161240812E-16
      1.00000000000000E-03
      0.00000000000000E+00   0.00000000000000E+00   0.00000000000000E+00   0.00000000000000E+00   0.00000000000000E+00
      0.00000000000000E+00   0.00000000000000E+00  -2.22032371823720E-16   0.00000000000000E+00   0.00000000000000E+00
      0.00000000000000E+00   0.00000000000000E+00  -2.18514121475390E-09  -1.09771602342638E-26  -2.18514121475390E-09
      1.11222510002224E-16   1.00000000000000E-03   1.00000000000000E-03   0.00000000000000E+00   0.00000000000000E+00
      2.18799504029814E-09   6.74224936604529E-26   2.18799504029814E-09   1.12022136103936E-16
      2.86666666666667E-03
      0.00000000000000E+00   0.00000000000000E+00   0.00000000000000E+00   0.00000000000000E+00   0.00000000000000E+00
      0.00000000000000E+00   0.00000000000000E+00  -2.22741553825828E-16   0.00000000000000E+00   0.00000000000000E+00
      0.00000000000000E+00   0.00000000000000E+00  -5.66081606678468E-09  -2.80294785720070E-26  -5.66081606678468E-09
      1.11221868217103E-16   2.86666666666667E-03   2.86666666666667E-03   0.00000000000000E+00   0.00000000000000E+00
      5.66083591729039E-09  -1.05093173422873E-24   5.66083591729039E-09   1.12731143596588E-16
      6.60000000000000E-03
      0.00000000000000E+00   0.00000000000000E+00   0.00000000000000E+00   0.00000000000000E+00   0.00000000000000E+00
      0.00000000000000E+00   0.00000000000000E+00  -2.24158719116894E-16   0.00000000000000E+00   0.00000000000000E+00
      0.00000000000000E+00   0.00000000000000E+00  -1.07635050340180E-08  -1.48114424545347E-27  -1.07635050340180E-08
      1.11220584036283E-16   6.60000000000000E-03   6.60000000000000E-03   0.00000000000000E+00   0.00000000000000E+00
      1.07635050322241E-08   1.61780079571567E-27   1.07635050322241E-08   1.14148075302907E-16
      1.35688888888889E-02
      0.00000000000000E+00   0.00000000000000E+00   0.00000000000000E+00   0.00000000000000E+00   0.00000000000000E+00
      0.00000000000000E+00   0.00000000000000E+00  -2.26799905465938E-16   0.00000000000000E+00   0.00000000000000E+00
      0.00000000000000E+00   0.00000000000000E+00  -1.60570281441993E-08   2.35796692223332E-26  -1.60570281441993E-08
      1.11218188930033E-16   1.35688888888889E-02   1.35688888888889E-02   0.00000000000000E+00   0.00000000000000E+00
      1.60570278954149E-08   4.46360282250655E-26   1.60570278954149E-08   1.16789196209739E-16
      2.65774814814815E-02
      0.00000000000000E+00   0.00000000000000E+00   0.00000000000000E+00   0.00000000000000E+00   0.00000000000000E+00
      0.00000000000000E+00   0.00000000000000E+00  -2.31716070945768E-16   0.00000000000000E+00   0.00000000000000E+00
      0.00000000000000E+00   0.00000000000000E+00  -1.93129766505116E-08   1.01180275810391E-25  -1.93129766505116E-08
      1.11213737812279E-16   2.65774814814815E-02   2.65774814814815E-02   0.00000000000000E+00   0.00000000000000E+00
      1.93129627346418E-08   1.50754925139225E-25   1.93129627346418E-08   1.21706297281302E-16
      5.08601876543210E-02
      0.00000000000000E+00   0.00000000000000E+00   0.00000000000000E+00   0.00000000000000E+00   0.00000000000000E+00
      0.00000000000000E+00   0.00000000000000E+00  -2.40847173040678E-16   0.00000000000000E+00   0.00000000000000E+00
      0.00000000000000E+00   0.00000000000000E+00  -2.03531445433952E-08  -5.74328674360346E-31  -2.03531445433952E-08
      1.11205515174086E-16   5.08601876543210E-02   5.08601876543210E-02   0.00000000000000E+00   0.00000000000000E+00
      2.03531445434117E-08   2.05143932898397E-31   2.03531445434117E-08   1.30841644257984E-16
      8.64748233744856E-02
      0.00000000000000E+00   0.00000000000000E+00   0.00000000000000E+00   0.00000000000000E+00   0.00000000000000E+00
      0.00000000000000E+00   0.00000000000000E+00  -2.54141941692167E-16   0.00000000000000E+00   0.00000000000000E+00
      0.00000000000000E+00   0.00000000000000E+00  -2.12581199853932E-08  -1.36689202303333E-25  -2.12581199853932E-08
      1.11193641499341E-16   8.64748233744856E-02   8.64748233744856E-02   0.00000000000000E+00   0.00000000000000E+00
      2.12581199875946E-08  -7.66919588768392E-26   2.12581199875946E-08   1.44145651758390E-16
      1.36474823374486E-01
      0.00000000000000E+00   0.00000000000000E+00   0.00000000000000E+00   0.00000000000000E+00   0.00000000000000E+00
      0.00000000000000E+00   0.00000000000000E+00  -2.72634270658611E-16   0.00000000000000E+00   0.00000000000000E+00
      0.00000000000000E+00   0.00000000000000E+00  -2.24857864494430E-08  -1.17130614789288E-25  -2.24857864494430E-08
      1.11177290208096E-16   1.36474823374486E-01   1.36474823374486E-01   0.00000000000000E+00   0.00000000000000E+00
      2.24857864494398E-08  -2.35428224282135E-27   2.24857864494398E-08   1.62653187630481E-16
      1.86474823374486E-01
      0.00000000000000E+00   0.00000000000000E+00   0.00000000000000E+00   0.00000000000000E+00   0.00000000000000E+00
      0.00000000000000E+00   0.00000000000000E+00  -2.90950209905610E-16   0.00000000000000E+00   0.00000000000000E+00
      0.00000000000000E+00   0.00000000000000E+00  -2.36757667893189E-08  -1.36940454889446E-28  -2.36757667893189E-08
      1.11161256589845E-16   1.86474823374486E-01   1.86474823374486E-01   0.00000000000000E+00   0.00000000000000E+00
      2.36757667893098E-08  -7.74149574201243E-30   2.36757667893098E-08   1.80984995003721E-16
      2.36474823374486E-01
      0.00000000000000E+00   0.00000000000000E+00   0.00000000000000E+00   0.00000000000000E+00   0.00000000000000E+00
      0.00000000000000E+00   0.00000000000000E+00  -3.09110684345428E-16   0.00000000000000E+00   0.00000000000000E+00
      0.00000000000000E+00   0.00000000000000E+00  -2.48364415627540E-08  -1.27086739666062E-25  -2.48364415627540E-08
      1.11145497315097E-16   2.36474823374486E-01   2.36474823374486E-01   0.00000000000000E+00   0.00000000000000E+00
      2.48364415597503E-08  -3.58396265851428E-26   2.48364415597503E-08   1.99161338400526E-16
      2.86474823374486E-01
      0.00000000000000E+00   0.00000000000000E+00   0.00000000000000E+00   0.00000000000000E+00   0.00000000000000E+00
      0.00000000000000E+00   0.00000000000000E+00  -3.27131830266488E-16   0.00000000000000E+00   0.00000000000000E+00
      0.00000000000000E+00   0.00000000000000E+00  -2.59738647034203E-08   6.95445392876374E-27  -2.59738647034203E-08
      1.11129979773842E-16   2.86474823374486E-01   2.86474823374486E-01   0.00000000000000E+00   0.00000000000000E+00
      2.59738647033828E-08  -1.05410119710352E-27   2.59738647033828E-08   2.17198181140683E-16
      3.36474823374486E-01
      0.00000000000000E+00   0.00000000000000E+00   0.00000000000000E+00   0.00000000000000E+00   0.00000000000000E+00
      0.00000000000000E+00   0.00000000000000E+00  -3.45026465063468E-16   0.00000000000000E+00   0.00000000000000E+00
      0.00000000000000E+00   0.00000000000000E+00  -2.70925774089926E-08  -6.26656321269479E-26  -2.70925774089926E-08
      1.11114678428111E-16   3.36474823374486E-01   3.36474823374486E-01   0.00000000000000E+00   0.00000000000000E+00
      2.70925754429358E-08  -2.17683403817406E-24   2.70925754429358E-08   2.35108282469695E-16
      3.86474823374486E-01
      0.00000000000000E+00   0.00000000000000E+00   0.00000000000000E+00   0.00000000000000E+00   0.00000000000000E+00
      0.00000000000000E+00   0.00000000000000E+00  -3.62804986816259E-16   0.00000000000000E+00   0.00000000000000E+00
      0.00000000000000E+00   0.00000000000000E+00  -2.81960828062460E-08  -5.70774128264429E-25  -2.81960828062460E-08
      1.11099572747269E-16   3.86474823374486E-01   3.86474823374486E-01   0.00000000000000E+00   0.00000000000000E+00
      2.81960687827027E-08  -2.23863031765217E-23   2.81960687827026E-08   2.52902075825930E-16
      4.36474823374486E-01
      0.00000000000000E+00   0.00000000000000E+00   0.00000000000000E+00   0.00000000000000E+00   0.00000000000000E+00
      0.00000000000000E+00   0.00000000000000E+00  -3.80475977532569E-16   0.00000000000000E+00   0.00000000000000E+00
      0.00000000000000E+00   0.00000000000000E+00  -2.92871463045814E-08  -2.31644974978079E-24  -2.92871463045814E-08
      1.11084645860817E-16   4.36474823374486E-01   4.36474823374486E-01   0.00000000000000E+00   0.00000000000000E+00
      2.92870882467461E-08   1.25756382287092E-21   2.92870882467474E-08   2.70588164469151E-16
      4.86474823374486E-01
      0.00000000000000E+00   0.00000000000000E+00   0.00000000000000E+00   0.00000000000000E+00   0.00000000000000E+00
      0.00000000000000E+00   0.00000000000000E+00  -3.98046609712297E-16   0.00000000000000E+00   0.00000000000000E+00
      0.00000000000000E+00   0.00000000000000E+00  -3.03679910263353E-08  -3.75816177994112E-25  -3.03679910263353E-08
      1.11069883696676E-16   4.86474823374486E-01   4.86474823374486E-01   0.00000000000000E+00   0.00000000000000E+00
      3.03679910093365E-08   4.79345621696590E-22   3.03679910093370E-08   2.88173728885860E-16
      5.36474823374486E-01
      0.00000000000000E+00   0.00000000000000E+00   0.00000000000000E+00   0.00000000000000E+00   0.00000000000000E+00
      0.00000000000000E+00   0.00000000000000E+00  -4.15522947109746E-16   0.00000000000000E+00   0.00000000000000E+00
      0.00000000000000E+00   0.00000000000000E+00  -3.14404327042500E-08  -2.22691226666625E-25  -3.14404327042500E-08
      1.11055274323977E-16   5.36474823374486E-01   5.36474823374486E-01   0.00000000000000E+00   0.00000000000000E+00
      3.14404188124128E-08  -6.49755918511887E-21   3.14404188124063E-08   3.05664841246380E-16
      5.86474823374486E-01
      0.00000000000000E+00   0.00000000000000E+00   0.00000000000000E+00   0.00000000000000E+00   0.00000000000000E+00
      0.00000000000000E+00   0.00000000000000E+00  -4.32910152927324E-16   0.00000000000000E+00   0.00000000000000E+00
      0.00000000000000E+00   0.00000000000000E+00  -3.25059746944646E-08  -1.74163804633834E-22  -3.25059746944648E-08
      1.11040807508296E-16   5.86474823374486E-01   5.86474823374486E-01   0.00000000000000E+00   0.00000000000000E+00
      3.25059746944500E-08   1.72589911259940E-19   3.25059746946226E-08   3.23066677484556E-16
      6.36474823374486E-01
      0.00000000000000E+00   0.00000000000000E+00   0.00000000000000E+00   0.00000000000000E+00   0.00000000000000E+00
      0.00000000000000E+00   0.00000000000000E+00  -4.50212652279781E-16   0.00000000000000E+00   0.00000000000000E+00
      0.00000000000000E+00   0.00000000000000E+00  -3.35658722476230E-08  -1.62926740341167E-22  -3.35658722476232E-08
      1.11026474475253E-16   6.36474823374486E-01   6.36474823374486E-01   0.00000000000000E+00   0.00000000000000E+00
      3.35658710229591E-08   1.77420331204474E-18   3.35658710247333E-08   3.40383673199459E-16
      6.86474823374486E-01
      0.00000000000000E+00   0.00000000000000E+00   0.00000000000000E+00   0.00000000000000E+00   0.00000000000000E+00
      0.00000000000000E+00   0.00000000000000E+00  -4.67434255526318E-16   0.00000000000000E+00   0.00000000000000E+00
      0.00000000000000E+00   0.00000000000000E+00  -3.46211847902146E-08  -4.52396285596114E-23  -3.46211847902146E-08
      1.11012267608915E-16   6.86474823374486E-01   6.86474823374486E-01   0.00000000000000E+00   0.00000000000000E+00
      3.46211845669897E-08  -1.55770273863977E-21   3.46211845669882E-08   3.57619647561923E-16
      7.36474823374486E-01
      0.00000000000000E+00   0.00000000000000E+00   0.00000000000000E+00   0.00000000000000E+00   0.00000000000000E+00
      0.00000000000000E+00   0.00000000000000E+00  -4.84578256509210E-16   0.00000000000000E+00   0.00000000000000E+00
      0.00000000000000E+00   0.00000000000000E+00  -3.56728217715472E-08  -4.05853084619587E-24  -3.56728217715472E-08
      1.10998180031488E-16   7.36474823374486E-01   7.36474823374486E-01   0.00000000000000E+00   0.00000000000000E+00
      3.56728217715644E-08   5.77123566189558E-20   3.56728217716221E-08   3.74777898724512E-16
      7.86474823374486E-01
      0.00000000000000E+00   0.00000000000000E+00   0.00000000000000E+00   0.00000000000000E+00   0.00000000000000E+00
      0.00000000000000E+00   0.00000000000000E+00  -5.01647508225333E-16   0.00000000000000E+00   0.00000000000000E+00
      0.00000000000000E+00   0.00000000000000E+00  -3.67215615975364E-08  -6.77223689783721E-22  -3.67215615975371E-08
      1.10984205752955E-16   7.86474823374486E-01   7.86474823374486E-01   0.00000000000000E+00   0.00000000000000E+00
      3.67215615935553E-08   4.13960884922498E-18   3.67215615976949E-08   3.91861285450677E-16
      8.36474823374486E-01
      0.00000000000000E+00   0.00000000000000E+00   0.00000000000000E+00   0.00000000000000E+00   0.00000000000000E+00
      0.00000000000000E+00   0.00000000000000E+00  -5.18644482027091E-16   0.00000000000000E+00   0.00000000000000E+00
      0.00000000000000E+00   0.00000000000000E+00  -3.77680665184804E-08  -1.86980855969861E-24  -3.77680665184804E-08
      1.10970339748654E-16   8.36474823374486E-01   8.36474823374486E-01   0.00000000000000E+00   0.00000000000000E+00
      3.77680665184424E-08   6.54463810507386E-21   3.77680665184489E-08   4.08872288698568E-16
      8.86474823374486E-01
      0.00000000000000E+00   0.00000000000000E+00   0.00000000000000E+00   0.00000000000000E+00   0.00000000000000E+00
      0.00000000000000E+00   0.00000000000000E+00  -5.35571322444549E-16   0.00000000000000E+00   0.00000000000000E+00
      0.00000000000000E+00   0.00000000000000E+00  -3.88129240937018E-08  -2.04581587417860E-25  -3.88129240937018E-08
      1.10956577217216E-16   8.86474823374486E-01   8.86474823374486E-01   0.00000000000000E+00   0.00000000000000E+00
      3.88129240918570E-08  -2.52007523366464E-21   3.88129240918544E-08   4.25813057878956E-16
      9.36474823374486E-01
      0.00000000000000E+00   0.00000000000000E+00   0.00000000000000E+00   0.00000000000000E+00   0.00000000000000E+00
      0.00000000000000E+00   0.00000000000000E+00  -5.52429880003368E-16   0.00000000000000E+00   0.00000000000000E+00
      0.00000000000000E+00   0.00000000000000E+00  -3.98566611101482E-08  -1.70171856390505E-23  -3.98566611101482E-08
      1.10942913524470E-16   9.36474823374486E-01   9.36474823374486E-01   0.00000000000000E+00   0.00000000000000E+00
      3.98566610937335E-08   3.15809117356802E-18   3.98566610968916E-08   4.42685444358174E-16
      9.86474823374486E-01
      0.00000000000000E+00   0.00000000000000E+00   0.00000000000000E+00   0.00000000000000E+00   0.00000000000000E+00
      0.00000000000000E+00   0.00000000000000E+00  -5.69221728731483E-16   0.00000000000000E+00   0.00000000000000E+00
      0.00000000000000E+00   0.00000000000000E+00  -4.08997322667484E-08  -3.74113550836512E-23  -4.08997322667484E-08
      1.10929344723009E-16   9.86474823374486E-01   9.86474823374486E-01   0.00000000000000E+00   0.00000000000000E+00
      4.08997322383962E-08   3.38823165162871E-17   4.08997322722785E-08   4.59491026135429E-16
      1.00000000000000E+00
      0.00000000000000E+00   0.00000000000000E+00   0.00000000000000E+00   0.00000000000000E+00   0.00000000000000E+00
      0.00000000000000E+00   0.00000000000000E+00  -5.73752697227427E-16   0.00000000000000E+00   0.00000000000000E+00
      0.00000000000000E+00   0.00000000000000E+00  -4.11818254208315E-08  -5.55966816578640E-24  -4.11818254208315E-08
      1.10925690151080E-16   1.00000000000000E+00   1.00000000000000E+00   0.00000000000000E+00   0.00000000000000E+00
      4.11818254158392E-08   5.78642780446431E-18   4.11818254216256E-08   4.64025693519145E-16
}
