DF-ISE text

Info {
  version   = 1.0
  type      = xyplot
  datasets  = [
    "time"
    "gate OuterVoltage" "gate InnerVoltage" "gate QuasiFermiPotential" "gate DisplacementCurrent" "gate eCurrent"
    "gate hCurrent" "gate TotalCurrent" "gate Charge" "source OuterVoltage" "source InnerVoltage"
    "source QuasiFermiPotential" "source DisplacementCurrent" "source eCurrent" "source hCurrent" "source TotalCurrent"
    "source Charge" "drain OuterVoltage" "drain InnerVoltage" "drain QuasiFermiPotential" "drain DisplacementCurrent"
    "drain eCurrent" "drain hCurrent" "drain TotalCurrent" "drain Charge" ]
  functions = [
    Time
    OuterVoltage InnerVoltage QuasiFermiPotential DisplacementCurrent eCurrent
    hCurrent TotalCurrent Charge OuterVoltage InnerVoltage
    QuasiFermiPotential DisplacementCurrent eCurrent hCurrent TotalCurrent
    Charge OuterVoltage InnerVoltage QuasiFermiPotential DisplacementCurrent
    eCurrent hCurrent TotalCurrent Charge ]
}

Data {
      0.00000000000000E+00
      0.00000000000000E+00   0.00000000000000E+00   0.00000000000000E+00   0.00000000000000E+00   0.00000000000000E+00
      0.00000000000000E+00   0.00000000000000E+00  -2.17498418906935E-16   0.00000000000000E+00   0.00000000000000E+00
      0.00000000000000E+00   0.00000000000000E+00   2.68593582501576E-20  -1.22593828427403E-31   2.68593582500351E-20
      1.09142820005993E-16   0.00000000000000E+00   0.00000000000000E+00   0.00000000000000E+00   0.00000000000000E+00
     -1.33934297933659E-22  -1.00376780388750E-31  -1.33934298034035E-22   1.09589078650419E-16
      0.00000000000000E+00
      0.00000000000000E+00   0.00000000000000E+00   0.00000000000000E+00   0.00000000000000E+00   0.00000000000000E+00
      0.00000000000000E+00   0.00000000000000E+00  -2.17498384458018E-16   0.00000000000000E+00   0.00000000000000E+00
      0.00000000000000E+00   0.00000000000000E+00   2.77483253746925E-17   9.94544413276231E-30   2.77483253747024E-17
      1.09142804036582E-16   0.00000000000000E+00   0.00000000000000E+00   0.00000000000000E+00   0.00000000000000E+00
      2.92026488226978E-17  -4.28535558245375E-29   2.92026488226549E-17   1.09589060188730E-16
      0.00000000000000E+00
      0.00000000000000E+00   0.00000000000000E+00   0.00000000000000E+00   0.00000000000000E+00   0.00000000000000E+00
      0.00000000000000E+00   0.00000000000000E+00  -2.17498384457991E-16   0.00000000000000E+00   0.00000000000000E+00
      0.00000000000000E+00   0.00000000000000E+00  -4.46974452161864E-21  -2.65760364974330E-34  -4.46974452161890E-21
      1.09142804036569E-16   0.00000000000000E+00   0.00000000000000E+00   0.00000000000000E+00   0.00000000000000E+00
     -4.84008435338522E-20  -1.79981037884216E-33  -4.84008435338540E-20   1.09589060188711E-16
      1.00000000000000E-03
      0.00000000000000E+00   0.00000000000000E+00   0.00000000000000E+00   0.00000000000000E+00   0.00000000000000E+00
      0.00000000000000E+00   0.00000000000000E+00  -2.17835125848371E-16   0.00000000000000E+00   0.00000000000000E+00
      0.00000000000000E+00   0.00000000000000E+00  -2.88313414386191E-09  -1.05523966913812E-26  -2.88313414386191E-09
      1.09142164145702E-16   9.00000000000000E-04   9.00000000000000E-04   0.00000000000000E+00   0.00000000000000E+00
      2.88397287719001E-09   1.53009259276782E-26   2.88397287719001E-09   1.09925874956641E-16
      2.86666666666667E-03
      0.00000000000000E+00   0.00000000000000E+00   0.00000000000000E+00   0.00000000000000E+00   0.00000000000000E+00
      0.00000000000000E+00   0.00000000000000E+00  -2.18463468910287E-16   0.00000000000000E+00   0.00000000000000E+00
      0.00000000000000E+00   0.00000000000000E+00  -7.54014185347430E-09  -2.11004382866319E-26  -7.54014185347430E-09
      1.09140969662738E-16   2.58000000000000E-03   2.58000000000000E-03   0.00000000000000E+00   0.00000000000000E+00
      7.54016039306757E-09  -5.79787815200566E-26   7.54016039306757E-09   1.10554388331915E-16
      6.60000000000000E-03
      0.00000000000000E+00   0.00000000000000E+00   0.00000000000000E+00   0.00000000000000E+00   0.00000000000000E+00
      0.00000000000000E+00   0.00000000000000E+00  -2.19719223346880E-16   0.00000000000000E+00   0.00000000000000E+00
      0.00000000000000E+00   0.00000000000000E+00  -1.45846644321839E-08  -3.86717427212510E-26  -1.45846644321839E-08
      1.09138581572503E-16   5.94000000000000E-03   5.94000000000000E-03   0.00000000000000E+00   0.00000000000000E+00
      1.45846644316988E-08   2.54037800817433E-26   1.45846644316988E-08   1.11810607485676E-16
      1.35688888888889E-02
      0.00000000000000E+00   0.00000000000000E+00   0.00000000000000E+00   0.00000000000000E+00   0.00000000000000E+00
      0.00000000000000E+00   0.00000000000000E+00  -2.22060037452714E-16   0.00000000000000E+00   0.00000000000000E+00
      0.00000000000000E+00   0.00000000000000E+00  -2.23375465908253E-08   3.21601027136686E-26  -2.23375465908253E-08
      1.09134131239955E-16   1.22120000000000E-02   1.22120000000000E-02   0.00000000000000E+00   0.00000000000000E+00
      2.23375462163331E-08   6.15927400667932E-26   2.23375462163331E-08   1.14152693202039E-16
      2.65774814814815E-02
      0.00000000000000E+00   0.00000000000000E+00   0.00000000000000E+00   0.00000000000000E+00   0.00000000000000E+00
      0.00000000000000E+00   0.00000000000000E+00  -2.26418592681634E-16   0.00000000000000E+00   0.00000000000000E+00
      0.00000000000000E+00   0.00000000000000E+00  -2.77487980673991E-08   1.24596071275879E-25  -2.77487980673991E-08
      1.09125862940351E-16   2.39197333333333E-02   2.39197333333333E-02   0.00000000000000E+00   0.00000000000000E+00
      2.77487868954434E-08   1.89101013315417E-25   2.77487868954434E-08   1.18514808031175E-16
      5.08601876543210E-02
      0.00000000000000E+00   0.00000000000000E+00   0.00000000000000E+00   0.00000000000000E+00   0.00000000000000E+00
      0.00000000000000E+00   0.00000000000000E+00  -2.34518735699437E-16   0.00000000000000E+00   0.00000000000000E+00
      0.00000000000000E+00   0.00000000000000E+00  -2.98667297687309E-08  -1.20658218575837E-27  -2.98667297687309E-08
      1.09110579511433E-16   4.57741688888889E-02   4.57741688888889E-02   0.00000000000000E+00   0.00000000000000E+00
      2.98667297684437E-08   2.23432598705275E-27   2.98667297684437E-08   1.26624555663571E-16
      8.97125175308642E-02
      0.00000000000000E+00   0.00000000000000E+00   0.00000000000000E+00   0.00000000000000E+00   0.00000000000000E+00
      0.00000000000000E+00   0.00000000000000E+00  -2.47391121352298E-16   0.00000000000000E+00   0.00000000000000E+00
      0.00000000000000E+00   0.00000000000000E+00  -3.18057543034331E-08  -1.24072485242647E-25  -3.18057543034331E-08
      1.09086490458201E-16   8.07412657777778E-02   8.07412657777778E-02   0.00000000000000E+00   0.00000000000000E+00
      3.18057542520295E-08  -6.78739528745853E-26   3.18057542520295E-08   1.39516680164790E-16
      1.39712517530864E-01
      0.00000000000000E+00   0.00000000000000E+00   0.00000000000000E+00   0.00000000000000E+00   0.00000000000000E+00
      0.00000000000000E+00   0.00000000000000E+00  -2.63816287010488E-16   0.00000000000000E+00   0.00000000000000E+00
      0.00000000000000E+00   0.00000000000000E+00  -3.42722503589617E-08  -8.60499830791080E-27  -3.42722503589617E-08
      1.09056047725967E-16   1.25741265777778E-01   1.25741265777778E-01   0.00000000000000E+00   0.00000000000000E+00
      3.42722503589502E-08  -1.01110337355180E-27   3.42722503589502E-08   1.55970439362278E-16
      1.89712517530864E-01
      0.00000000000000E+00   0.00000000000000E+00   0.00000000000000E+00   0.00000000000000E+00   0.00000000000000E+00
      0.00000000000000E+00   0.00000000000000E+00  -2.80102116554840E-16   0.00000000000000E+00   0.00000000000000E+00
      0.00000000000000E+00   0.00000000000000E+00  -3.67271987200738E-08  -8.88535123364738E-26  -3.67271987200738E-08
      1.09026141867267E-16   1.70741265777778E-01   1.70741265777778E-01   0.00000000000000E+00   0.00000000000000E+00
      3.67271987200073E-08  -1.29171444751760E-26   3.67271987200073E-08   1.72285886268413E-16
      2.39712517530864E-01
      0.00000000000000E+00   0.00000000000000E+00   0.00000000000000E+00   0.00000000000000E+00   0.00000000000000E+00
      0.00000000000000E+00   0.00000000000000E+00  -2.96264126246982E-16   0.00000000000000E+00   0.00000000000000E+00
      0.00000000000000E+00   0.00000000000000E+00  -3.91796782286482E-08  -1.18899974160577E-25  -3.91796782286482E-08
      1.08996702767532E-16   2.15741265777778E-01   2.15741265777778E-01   0.00000000000000E+00   0.00000000000000E+00
      3.91796782287939E-08  -5.00017216267739E-27   3.91796782287939E-08   1.88477575509047E-16
      2.89712517530864E-01
      0.00000000000000E+00   0.00000000000000E+00   0.00000000000000E+00   0.00000000000000E+00   0.00000000000000E+00
      0.00000000000000E+00   0.00000000000000E+00  -3.12314432518330E-16   0.00000000000000E+00   0.00000000000000E+00
      0.00000000000000E+00   0.00000000000000E+00  -4.16362997370878E-08  -3.29514640200229E-25  -4.16362997370878E-08
      1.08967677427008E-16   2.60741265777778E-01   2.60741265777778E-01   0.00000000000000E+00   0.00000000000000E+00
      4.16362997189177E-08  -7.68719732057571E-23   4.16362997189176E-08   2.04557322229525E-16
      3.39712517530864E-01
      0.00000000000000E+00   0.00000000000000E+00   0.00000000000000E+00   0.00000000000000E+00   0.00000000000000E+00
      0.00000000000000E+00   0.00000000000000E+00  -3.28262780844319E-16   0.00000000000000E+00   0.00000000000000E+00
      0.00000000000000E+00   0.00000000000000E+00  -4.41020745281802E-08   4.61814562296170E-27  -4.41020745281802E-08
      1.08939024008096E-16   3.05741265777778E-01   3.05741265777778E-01   0.00000000000000E+00   0.00000000000000E+00
      4.41020745269752E-08  -4.60491306934107E-21   4.41020745269706E-08   2.20534777940526E-16
      3.89712517530864E-01
      0.00000000000000E+00   0.00000000000000E+00   0.00000000000000E+00   0.00000000000000E+00   0.00000000000000E+00
      0.00000000000000E+00   0.00000000000000E+00  -3.44117173608360E-16   0.00000000000000E+00   0.00000000000000E+00
      0.00000000000000E+00   0.00000000000000E+00  -4.65807481245481E-08   3.66989628080025E-22  -4.65807481245477E-08
      1.08910708553421E-16   3.50741265777778E-01   3.50741265777778E-01   0.00000000000000E+00   0.00000000000000E+00
      4.65742301482531E-08   8.01099051083449E-21   4.65742301482611E-08   2.36417914436930E-16
      4.39712517530864E-01
      0.00000000000000E+00   0.00000000000000E+00   0.00000000000000E+00   0.00000000000000E+00   0.00000000000000E+00
      0.00000000000000E+00   0.00000000000000E+00  -3.59884282484024E-16   0.00000000000000E+00   0.00000000000000E+00
      0.00000000000000E+00   0.00000000000000E+00  -4.90759317484947E-08  -1.24608184391615E-26  -4.90759317484947E-08
      1.08882702968732E-16   3.95741265777778E-01   3.95741265777778E-01   0.00000000000000E+00   0.00000000000000E+00
      4.90759302652379E-08  -2.44307691954400E-22   4.90759302652376E-08   2.52213467641738E-16
      4.89712517530864E-01
      0.00000000000000E+00   0.00000000000000E+00   0.00000000000000E+00   0.00000000000000E+00   0.00000000000000E+00
      0.00000000000000E+00   0.00000000000000E+00  -3.75569743582092E-16   0.00000000000000E+00   0.00000000000000E+00
      0.00000000000000E+00   0.00000000000000E+00  -5.15896661386072E-08  -2.05521645437434E-24  -5.15896661386072E-08
      1.08854983614165E-16   4.40741265777778E-01   4.40741265777778E-01   0.00000000000000E+00   0.00000000000000E+00
      5.15896642789348E-08   9.72013202821924E-22   5.15896642789358E-08   2.67927095153706E-16
      5.39712517530864E-01
      0.00000000000000E+00   0.00000000000000E+00   0.00000000000000E+00   0.00000000000000E+00   0.00000000000000E+00
      0.00000000000000E+00   0.00000000000000E+00  -3.91178362052857E-16   0.00000000000000E+00   0.00000000000000E+00
      0.00000000000000E+00   0.00000000000000E+00  -5.41242049235996E-08   1.80431918342097E-27  -5.41242049235996E-08
      1.08827530372186E-16   4.85741265777778E-01   4.85741265777778E-01   0.00000000000000E+00   0.00000000000000E+00
      5.41242049166288E-08   1.37056212814273E-23   5.41242049166288E-08   2.83563614896935E-16
      5.89712517530864E-01
      0.00000000000000E+00   0.00000000000000E+00   0.00000000000000E+00   0.00000000000000E+00   0.00000000000000E+00
      0.00000000000000E+00   0.00000000000000E+00  -4.06714274662635E-16   0.00000000000000E+00   0.00000000000000E+00
      0.00000000000000E+00   0.00000000000000E+00  -5.66812986194402E-08   3.08317868901258E-25  -5.66812986194402E-08
      1.08800325877331E-16   5.30741265777778E-01   5.30741265777778E-01   0.00000000000000E+00   0.00000000000000E+00
      5.66812964697655E-08   1.42029943867650E-22   5.66812964697657E-08   2.99127176366150E-16
      6.39712517530864E-01
      0.00000000000000E+00   0.00000000000000E+00   0.00000000000000E+00   0.00000000000000E+00   0.00000000000000E+00
      0.00000000000000E+00   0.00000000000000E+00  -4.22181059056057E-16   0.00000000000000E+00   0.00000000000000E+00
      0.00000000000000E+00   0.00000000000000E+00  -5.92624258818876E-08  -3.45494458537714E-23  -5.92624258818876E-08
      1.08773355055260E-16   5.75741265777778E-01   5.75741265777778E-01   0.00000000000000E+00   0.00000000000000E+00
      5.92624258756255E-08   3.66637543305310E-20   5.92624258756621E-08   3.14621376357845E-16
      6.89712517530864E-01
      0.00000000000000E+00   0.00000000000000E+00   0.00000000000000E+00   0.00000000000000E+00   0.00000000000000E+00
      0.00000000000000E+00   0.00000000000000E+00  -4.37581828174814E-16   0.00000000000000E+00   0.00000000000000E+00
      0.00000000000000E+00   0.00000000000000E+00  -6.18688497018916E-08   2.98195633618852E-25  -6.18688497018916E-08
      1.08746604707731E-16   6.20741265777778E-01   6.20741265777778E-01   0.00000000000000E+00   0.00000000000000E+00
      6.18688492905506E-08   2.33170738458960E-19   6.18688492907838E-08   3.30049343303484E-16
      7.39712517530864E-01
      0.00000000000000E+00   0.00000000000000E+00   0.00000000000000E+00   0.00000000000000E+00   0.00000000000000E+00
      0.00000000000000E+00   0.00000000000000E+00  -4.52919300987232E-16   0.00000000000000E+00   0.00000000000000E+00
      0.00000000000000E+00   0.00000000000000E+00  -6.45016593719562E-08  -3.75975181504452E-26  -6.45016593719562E-08
      1.08720063183509E-16   6.65741265777778E-01   6.65741265777778E-01   0.00000000000000E+00   0.00000000000000E+00
      6.45016593709452E-08  -2.28254649098545E-22   6.45016593709450E-08   3.45413808583227E-16
      7.89712517530864E-01
      0.00000000000000E+00   0.00000000000000E+00   0.00000000000000E+00   0.00000000000000E+00   0.00000000000000E+00
      0.00000000000000E+00   0.00000000000000E+00  -4.68195855892689E-16   0.00000000000000E+00   0.00000000000000E+00
      0.00000000000000E+00   0.00000000000000E+00  -6.71618031693756E-08  -3.06857698700187E-22  -6.71618031693759E-08
      1.08693720103972E-16   7.10741265777778E-01   7.10741265777778E-01   0.00000000000000E+00   0.00000000000000E+00
      6.71617604158321E-08   8.50354662880548E-19   6.71617604166825E-08   3.60717160019157E-16
      8.39712517530864E-01
      0.00000000000000E+00   0.00000000000000E+00   0.00000000000000E+00   0.00000000000000E+00   0.00000000000000E+00
      0.00000000000000E+00   0.00000000000000E+00  -4.83413577353621E-16   0.00000000000000E+00   0.00000000000000E+00
      0.00000000000000E+00   0.00000000000000E+00  -6.98501078376951E-08  -4.16642493951065E-23  -6.98501078376951E-08
      1.08667566219102E-16   7.55741265777778E-01   7.55741265777778E-01   0.00000000000000E+00   0.00000000000000E+00
      6.98501078371230E-08   3.04576808125508E-19   6.98501078374276E-08   3.75961490624007E-16
      8.89712517530864E-01
      0.00000000000000E+00   0.00000000000000E+00   0.00000000000000E+00   0.00000000000000E+00   0.00000000000000E+00
      0.00000000000000E+00   0.00000000000000E+00  -4.98574294503551E-16   0.00000000000000E+00   0.00000000000000E+00
      0.00000000000000E+00   0.00000000000000E+00  -7.25673021542044E-08  -2.64360730656739E-22  -7.25673021542046E-08
      1.08641593273219E-16   8.00741265777778E-01   8.00741265777778E-01   0.00000000000000E+00   0.00000000000000E+00
      7.25673021459080E-08   2.09930562127643E-18   7.25673021480073E-08   3.91148638362384E-16
      9.39712517530864E-01
      0.00000000000000E+00   0.00000000000000E+00   0.00000000000000E+00   0.00000000000000E+00   0.00000000000000E+00
      0.00000000000000E+00   0.00000000000000E+00  -5.13679612418031E-16   0.00000000000000E+00   0.00000000000000E+00
      0.00000000000000E+00   0.00000000000000E+00  -7.53140322667906E-08  -8.88240483353797E-24  -7.53140322667906E-08
      1.08615793792301E-16   8.45741265777778E-01   8.45741265777778E-01   0.00000000000000E+00   0.00000000000000E+00
      7.53140322833817E-08   5.80866399675046E-20   7.53140322834398E-08   4.06280216279842E-16
      9.89712517530865E-01
      0.00000000000000E+00   0.00000000000000E+00   0.00000000000000E+00   0.00000000000000E+00   0.00000000000000E+00
      0.00000000000000E+00   0.00000000000000E+00  -5.28730936835049E-16   0.00000000000000E+00   0.00000000000000E+00
      0.00000000000000E+00   0.00000000000000E+00  -7.80908854195435E-08  -1.32750840264317E-25  -7.80908854195435E-08
      1.08590160844403E-16   8.90741265777778E-01   8.90741265777778E-01   0.00000000000000E+00   0.00000000000000E+00
      7.80908854190165E-08  -1.26891773221010E-22   7.80908854190163E-08   4.21357636381574E-16
      1.00000000000000E+00
      0.00000000000000E+00   0.00000000000000E+00   0.00000000000000E+00   0.00000000000000E+00   0.00000000000000E+00
      0.00000000000000E+00   0.00000000000000E+00  -5.31821158831086E-16   0.00000000000000E+00   0.00000000000000E+00
      0.00000000000000E+00   0.00000000000000E+00  -7.86660074188532E-08  -2.74307416703103E-25  -7.86660074188532E-08
      1.08584906948017E-16   9.00000000000000E-01   9.00000000000000E-01   0.00000000000000E+00   0.00000000000000E+00
      7.86660074187738E-08   1.37349692323421E-20   7.86660074187876E-08   4.24453207757253E-16
}
