DF-ISE text

Info {
  version   = 1.0
  type      = xyplot
  datasets  = [
    "time"
    "gate OuterVoltage" "gate InnerVoltage" "gate QuasiFermiPotential" "gate DisplacementCurrent" "gate eCurrent"
    "gate hCurrent" "gate TotalCurrent" "gate Charge" "source OuterVoltage" "source InnerVoltage"
    "source QuasiFermiPotential" "source DisplacementCurrent" "source eCurrent" "source hCurrent" "source TotalCurrent"
    "source Charge" "drain OuterVoltage" "drain InnerVoltage" "drain QuasiFermiPotential" "drain DisplacementCurrent"
    "drain eCurrent" "drain hCurrent" "drain TotalCurrent" "drain Charge" ]
  functions = [
    Time
    OuterVoltage InnerVoltage QuasiFermiPotential DisplacementCurrent eCurrent
    hCurrent TotalCurrent Charge OuterVoltage InnerVoltage
    QuasiFermiPotential DisplacementCurrent eCurrent hCurrent TotalCurrent
    Charge OuterVoltage InnerVoltage QuasiFermiPotential DisplacementCurrent
    eCurrent hCurrent TotalCurrent Charge ]
}

Data {
      0.00000000000000E+00
      0.00000000000000E+00   0.00000000000000E+00   0.00000000000000E+00   0.00000000000000E+00   0.00000000000000E+00
      0.00000000000000E+00   0.00000000000000E+00   2.07607956930163E-16   0.00000000000000E+00   0.00000000000000E+00
      0.00000000000000E+00   0.00000000000000E+00   2.96573599458834E-19  -2.72202476949252E-18  -2.42545117003368E-18
     -1.04227169099012E-16   0.00000000000000E+00   0.00000000000000E+00   0.00000000000000E+00   0.00000000000000E+00
      6.85876821374160E-18  -7.56455179400026E-18  -7.05783580258659E-19  -1.04619835886418E-16
      0.00000000000000E+00
      0.00000000000000E+00   0.00000000000000E+00   0.00000000000000E+00   0.00000000000000E+00   0.00000000000000E+00
      0.00000000000000E+00   0.00000000000000E+00   2.32190668351168E-16   0.00000000000000E+00   0.00000000000000E+00
      0.00000000000000E+00   0.00000000000000E+00   6.15928840388216E-19  -3.39586318516924E-17  -3.33427030113042E-17
     -1.17216005716441E-16   0.00000000000000E+00   0.00000000000000E+00   0.00000000000000E+00   0.00000000000000E+00
      3.14363568022624E-18  -1.28918093523694E-17  -9.74817367214320E-18  -1.16795689122625E-16
      0.00000000000000E+00
      0.00000000000000E+00   0.00000000000000E+00   0.00000000000000E+00   0.00000000000000E+00   0.00000000000000E+00
      0.00000000000000E+00   0.00000000000000E+00   2.32190668229492E-16   0.00000000000000E+00   0.00000000000000E+00
      0.00000000000000E+00   0.00000000000000E+00  -1.30109003188412E-18   7.41968952242300E-19  -5.59121079641816E-19
     -1.17216005683260E-16   0.00000000000000E+00   0.00000000000000E+00   0.00000000000000E+00   0.00000000000000E+00
      2.14296690023539E-17  -2.11650200417421E-17   2.64648960611793E-19  -1.16795689102998E-16
      1.00000000000000E-03
      0.00000000000000E+00   0.00000000000000E+00   0.00000000000000E+00   0.00000000000000E+00   0.00000000000000E+00
      0.00000000000000E+00   0.00000000000000E+00   2.32473507815578E-16   0.00000000000000E+00   0.00000000000000E+00
      0.00000000000000E+00   0.00000000000000E+00   7.46475678151644E-10   1.09865507351116E-15   7.46476776806718E-10
     -1.17215734316435E-16  -7.50000000000000E-04  -7.50000000000000E-04   0.00000000000000E+00   0.00000000000000E+00
     -7.46479078275517E-10  -5.12864598225810E-12  -7.51607724257775E-10  -1.17076849294904E-16
      2.86666666666667E-03
      0.00000000000000E+00   0.00000000000000E+00   0.00000000000000E+00   0.00000000000000E+00   0.00000000000000E+00
      0.00000000000000E+00   0.00000000000000E+00   2.33001313241357E-16   0.00000000000000E+00   0.00000000000000E+00
      0.00000000000000E+00   0.00000000000000E+00   2.02238179180825E-09   3.44017710140867E-16   2.02238213582596E-09
     -1.17215228026080E-16  -2.15000000000000E-03  -2.15000000000000E-03   0.00000000000000E+00   0.00000000000000E+00
     -2.02238285578069E-09  -1.83516008852781E-14  -2.02240120738157E-09  -1.17601568273869E-16
      6.60000000000000E-03
      0.00000000000000E+00   0.00000000000000E+00   0.00000000000000E+00   0.00000000000000E+00   0.00000000000000E+00
      0.00000000000000E+00   0.00000000000000E+00   2.34056296775076E-16   0.00000000000000E+00   0.00000000000000E+00
      0.00000000000000E+00   0.00000000000000E+00   4.17066288172120E-09  -7.42681555410432E-16   4.17066213903964E-09
     -1.17214216548688E-16  -4.95000000000000E-03  -4.95000000000000E-03   0.00000000000000E+00   0.00000000000000E+00
     -4.17066460805152E-09  -2.88475895578184E-13  -4.17095308394710E-09  -1.18650563770687E-16
      1.40666666666667E-02
      0.00000000000000E+00   0.00000000000000E+00   0.00000000000000E+00   0.00000000000000E+00   0.00000000000000E+00
      0.00000000000000E+00   0.00000000000000E+00   2.36163792032592E-16   0.00000000000000E+00   0.00000000000000E+00
      0.00000000000000E+00   0.00000000000000E+00   7.20701827265630E-09  -4.94448699289503E-17   7.20701822321143E-09
     -1.17212198489864E-16  -1.05500000000000E-02  -1.05500000000000E-02   0.00000000000000E+00   0.00000000000000E+00
     -7.20701822413586E-09   2.37771640380000E-19  -7.20701822389809E-09  -1.20746789408474E-16
      2.70088888888889E-02
      0.00000000000000E+00   0.00000000000000E+00   0.00000000000000E+00   0.00000000000000E+00   0.00000000000000E+00
      0.00000000000000E+00   0.00000000000000E+00   2.39809185254283E-16   0.00000000000000E+00   0.00000000000000E+00
      0.00000000000000E+00   0.00000000000000E+00   9.92811666617320E-09   4.31563114021028E-16   9.92811709773631E-09
     -1.17208717598804E-16  -2.02566666666667E-02  -2.02566666666667E-02   0.00000000000000E+00   0.00000000000000E+00
     -9.92811687044165E-09  -1.84857345784533E-16  -9.92811705529899E-09  -1.24374701418965E-16
      5.11677037037037E-02
      0.00000000000000E+00   0.00000000000000E+00   0.00000000000000E+00   0.00000000000000E+00   0.00000000000000E+00
      0.00000000000000E+00   0.00000000000000E+00   2.46589334272415E-16   0.00000000000000E+00   0.00000000000000E+00
      0.00000000000000E+00   0.00000000000000E+00   1.11586997662646E-08  -1.44783737794658E-14   1.11586852878908E-08
     -1.17202280323978E-16  -3.83757777777778E-02  -3.83757777777778E-02   0.00000000000000E+00   0.00000000000000E+00
     -1.11586833939210E-08   5.69572903257766E-15  -1.11586776981920E-08  -1.31128208058870E-16
      9.62641580246914E-02
      0.00000000000000E+00   0.00000000000000E+00   0.00000000000000E+00   0.00000000000000E+00   0.00000000000000E+00
      0.00000000000000E+00   0.00000000000000E+00   2.59166548734896E-16   0.00000000000000E+00   0.00000000000000E+00
      0.00000000000000E+00   0.00000000000000E+00   1.06510622707021E-08   2.28198839239335E-17   1.06510622935220E-08
     -1.17190460975906E-16  -7.21981185185185E-02  -7.21981185185185E-02   0.00000000000000E+00   0.00000000000000E+00
     -1.06510623019413E-08   8.65223666919549E-18  -1.06510622932891E-08  -1.43671647063849E-16
      1.46264158024691E-01
      0.00000000000000E+00   0.00000000000000E+00   0.00000000000000E+00   0.00000000000000E+00   0.00000000000000E+00
      0.00000000000000E+00   0.00000000000000E+00   2.73002744031478E-16   0.00000000000000E+00   0.00000000000000E+00
      0.00000000000000E+00   0.00000000000000E+00   1.04999425205023E-08  -3.84067758969401E-15   1.04999386798247E-08
     -1.17177615722273E-16  -1.09698118518519E-01  -1.09698118518519E-01   0.00000000000000E+00   0.00000000000000E+00
     -1.04999387852787E-08   1.92384498222985E-16  -1.04999385928942E-08  -1.57487060090437E-16
      1.71264158024691E-01
      0.00000000000000E+00   0.00000000000000E+00   0.00000000000000E+00   0.00000000000000E+00   0.00000000000000E+00
      0.00000000000000E+00   0.00000000000000E+00   2.79881787629681E-16   0.00000000000000E+00   0.00000000000000E+00
      0.00000000000000E+00   0.00000000000000E+00   1.06550065980586E-08   7.95294593474622E-15   1.06550145510046E-08
     -1.17171282515211E-16  -1.28448118518519E-01  -1.28448118518519E-01   0.00000000000000E+00   0.00000000000000E+00
     -1.06550152831695E-08   3.49479364848611E-16  -1.06550149336902E-08  -1.64360219837104E-16
      2.11264158024691E-01
      0.00000000000000E+00   0.00000000000000E+00   0.00000000000000E+00   0.00000000000000E+00   0.00000000000000E+00
      0.00000000000000E+00   0.00000000000000E+00   2.90838158578990E-16   0.00000000000000E+00   0.00000000000000E+00
      0.00000000000000E+00   0.00000000000000E+00   1.10672623020323E-08  -8.02662616559147E-15   1.10672542754061E-08
     -1.17161260825803E-16  -1.58448118518519E-01  -1.58448118518519E-01   0.00000000000000E+00   0.00000000000000E+00
     -1.10672511742849E-08  -2.83646842030662E-15  -1.10672540107533E-08  -1.75311605857192E-16
      2.36264158024691E-01
      0.00000000000000E+00   0.00000000000000E+00   0.00000000000000E+00   0.00000000000000E+00   0.00000000000000E+00
      0.00000000000000E+00   0.00000000000000E+00   2.97656266183225E-16   0.00000000000000E+00   0.00000000000000E+00
      0.00000000000000E+00   0.00000000000000E+00   1.13821249596480E-08   3.74167211203864E-15   1.13821287013201E-08
     -1.17155061975870E-16  -1.77198118518519E-01  -1.77198118518519E-01   0.00000000000000E+00   0.00000000000000E+00
     -1.13821268513332E-08  -1.46496964566289E-15  -1.13821283163028E-08  -1.82128731735662E-16
      2.76264158024691E-01
      0.00000000000000E+00   0.00000000000000E+00   0.00000000000000E+00   0.00000000000000E+00   0.00000000000000E+00
      0.00000000000000E+00   0.00000000000000E+00   3.08520593457552E-16   0.00000000000000E+00   0.00000000000000E+00
      0.00000000000000E+00   0.00000000000000E+00   1.19263145043108E-08   1.66052335001362E-15   1.19263161648342E-08
     -1.17145239548883E-16  -2.07198118518519E-01  -2.07198118518519E-01   0.00000000000000E+00   0.00000000000000E+00
     -1.19263160438985E-08  -6.61656664785175E-17  -1.19263161100642E-08  -1.92994021292426E-16
      3.24264158024691E-01
      0.00000000000000E+00   0.00000000000000E+00   0.00000000000000E+00   0.00000000000000E+00   0.00000000000000E+00
      0.00000000000000E+00   0.00000000000000E+00   3.21489419193216E-16   0.00000000000000E+00   0.00000000000000E+00
      0.00000000000000E+00   0.00000000000000E+00   1.25973939329450E-08   3.68618578198760E-16   1.25973943015636E-08
     -1.17133596691005E-16  -2.43198118518519E-01  -2.43198118518519E-01   0.00000000000000E+00   0.00000000000000E+00
     -1.25973940851067E-08  -2.70746430965545E-15  -1.25973967925710E-08  -2.05967016119918E-16
      3.49264158024691E-01
      0.00000000000000E+00   0.00000000000000E+00   0.00000000000000E+00   0.00000000000000E+00   0.00000000000000E+00
      0.00000000000000E+00   0.00000000000000E+00   3.28216070032334E-16   0.00000000000000E+00   0.00000000000000E+00
      0.00000000000000E+00   0.00000000000000E+00   1.29428057272990E-08   3.67114171921364E-16   1.29428060944131E-08
     -1.17127590660981E-16  -2.61948118518519E-01  -2.61948118518519E-01   0.00000000000000E+00   0.00000000000000E+00
     -1.29428061988886E-08   1.97339224219596E-16  -1.29428060015494E-08  -2.12696787217617E-16
      3.85930824691358E-01
      0.00000000000000E+00   0.00000000000000E+00   0.00000000000000E+00   0.00000000000000E+00   0.00000000000000E+00
      0.00000000000000E+00   0.00000000000000E+00   3.38048890291546E-16   0.00000000000000E+00   0.00000000000000E+00
      0.00000000000000E+00   0.00000000000000E+00   1.34296220636126E-08   2.55668633014535E-15   1.34296246202989E-08
     -1.17118849130442E-16  -2.89448118518519E-01  -2.89448118518519E-01   0.00000000000000E+00   0.00000000000000E+00
     -1.34296265631423E-08  -9.48553516985310E-16  -1.34296275116959E-08  -2.22535050838632E-16
      4.35930824691358E-01
      0.00000000000000E+00   0.00000000000000E+00   0.00000000000000E+00   0.00000000000000E+00   0.00000000000000E+00
      0.00000000000000E+00   0.00000000000000E+00   3.51397078521980E-16   0.00000000000000E+00   0.00000000000000E+00
      0.00000000000000E+00   0.00000000000000E+00   1.40538417384948E-08  -5.06978406684582E-18   1.40538417334250E-08
     -1.17107050341427E-16  -3.26948118518519E-01  -3.26948118518519E-01   0.00000000000000E+00   0.00000000000000E+00
     -1.40538414899650E-08   2.58109907757089E-15  -1.40538389088660E-08  -2.35891889775359E-16
      4.85930824691358E-01
      0.00000000000000E+00   0.00000000000000E+00   0.00000000000000E+00   0.00000000000000E+00   0.00000000000000E+00
      0.00000000000000E+00   0.00000000000000E+00   3.64679461752768E-16   0.00000000000000E+00   0.00000000000000E+00
      0.00000000000000E+00   0.00000000000000E+00   1.46339247174978E-08   9.76036536832146E-15   1.46339344778632E-08
     -1.17095382338628E-16  -3.64448118518519E-01  -3.64448118518519E-01   0.00000000000000E+00   0.00000000000000E+00
     -1.46339345277486E-08   1.06123972962773E-13  -1.46338284037756E-08  -2.49183897293560E-16
      5.35930824691358E-01
      0.00000000000000E+00   0.00000000000000E+00   0.00000000000000E+00   0.00000000000000E+00   0.00000000000000E+00
      0.00000000000000E+00   0.00000000000000E+00   3.77899575343160E-16   0.00000000000000E+00   0.00000000000000E+00
      0.00000000000000E+00   0.00000000000000E+00   1.51804268038077E-08   4.44128181925661E-15   1.51804312450895E-08
     -1.17083836192138E-16  -4.01948118518519E-01  -4.01948118518519E-01   0.00000000000000E+00   0.00000000000000E+00
     -1.51804302821649E-08  -6.03724650476580E-14  -1.51804906546300E-08  -2.62414271560269E-16
      5.85930824691358E-01
      0.00000000000000E+00   0.00000000000000E+00   0.00000000000000E+00   0.00000000000000E+00   0.00000000000000E+00
      0.00000000000000E+00   0.00000000000000E+00   3.91060517031389E-16   0.00000000000000E+00   0.00000000000000E+00
      0.00000000000000E+00   0.00000000000000E+00   1.56949210731616E-08   3.43161091310715E-15   1.56949245047726E-08
     -1.17072404132298E-16  -4.39448118518519E-01  -4.39448118518519E-01   0.00000000000000E+00   0.00000000000000E+00
     -1.56949239819322E-08  -7.95391470252117E-14  -1.56950035210793E-08  -2.75585887271903E-16
      6.10930824691358E-01
      0.00000000000000E+00   0.00000000000000E+00   0.00000000000000E+00   0.00000000000000E+00   0.00000000000000E+00
      0.00000000000000E+00   0.00000000000000E+00   3.97619671097557E-16   0.00000000000000E+00   0.00000000000000E+00
      0.00000000000000E+00   0.00000000000000E+00   1.59515780909695E-08  -8.90210781586305E-16   1.59515772007587E-08
     -1.17066728730157E-16  -4.58198118518519E-01  -4.58198118518519E-01   0.00000000000000E+00   0.00000000000000E+00
     -1.59515794621885E-08  -4.05521855043186E-14  -1.59516200143740E-08  -2.82150481409090E-16
      6.44264158024692E-01
      0.00000000000000E+00   0.00000000000000E+00   0.00000000000000E+00   0.00000000000000E+00   0.00000000000000E+00
      0.00000000000000E+00   0.00000000000000E+00   4.06343808584566E-16   0.00000000000000E+00   0.00000000000000E+00
      0.00000000000000E+00   0.00000000000000E+00   1.62855430443407E-08   2.92106924848624E-15   1.62855459654099E-08
     -1.17059201905866E-16  -4.83198118518519E-01  -4.83198118518519E-01   0.00000000000000E+00   0.00000000000000E+00
     -1.62855473354864E-08  -1.36545274185804E-13  -1.62856838807606E-08  -2.90881950090031E-16
      6.77597491358025E-01
      0.00000000000000E+00   0.00000000000000E+00   0.00000000000000E+00   0.00000000000000E+00   0.00000000000000E+00
      0.00000000000000E+00   0.00000000000000E+00   4.15044129317649E-16   0.00000000000000E+00   0.00000000000000E+00
      0.00000000000000E+00   0.00000000000000E+00   1.66200403527820E-08   2.08413970058597E-15   1.66200424369217E-08
     -1.17051719646911E-16  -5.08198118518519E-01  -5.08198118518519E-01   0.00000000000000E+00   0.00000000000000E+00
     -1.66200434531256E-08  -1.18240383360849E-13  -1.66201616935090E-08  -2.99589661968647E-16
      7.22041935802469E-01
      0.00000000000000E+00   0.00000000000000E+00   0.00000000000000E+00   0.00000000000000E+00   0.00000000000000E+00
      0.00000000000000E+00   0.00000000000000E+00   4.26608614696056E-16   0.00000000000000E+00   0.00000000000000E+00
      0.00000000000000E+00   0.00000000000000E+00   1.70715941408508E-08  -7.88481281903048E-14   1.70715152927226E-08
     -1.17041809892121E-16  -5.41531451851852E-01  -5.41531451851852E-01   0.00000000000000E+00   0.00000000000000E+00
     -1.70715114124693E-08  -1.90308544252386E-13  -1.70717017210136E-08  -3.11164062057445E-16
      7.66486380246914E-01
      0.00000000000000E+00   0.00000000000000E+00   0.00000000000000E+00   0.00000000000000E+00   0.00000000000000E+00
      0.00000000000000E+00   0.00000000000000E+00   4.38133299514588E-16   0.00000000000000E+00   0.00000000000000E+00
      0.00000000000000E+00   0.00000000000000E+00   1.75254750961738E-08   7.92304586902693E-16   1.75254758884784E-08
     -1.17031973083189E-16  -5.74864785185185E-01  -5.74864785185185E-01   0.00000000000000E+00   0.00000000000000E+00
     -1.75254773724180E-08  -2.20884381124279E-13  -1.75256982567991E-08  -3.22698700173055E-16
      8.13893787654321E-01
      0.00000000000000E+00   0.00000000000000E+00   0.00000000000000E+00   0.00000000000000E+00   0.00000000000000E+00
      0.00000000000000E+00   0.00000000000000E+00   4.50383884315394E-16   0.00000000000000E+00   0.00000000000000E+00
      0.00000000000000E+00   0.00000000000000E+00   1.80196557556378E-08   1.10654952985692E-15   1.80196568621874E-08
     -1.17021557223012E-16  -6.10420340740741E-01  -6.10420340740741E-01   0.00000000000000E+00   0.00000000000000E+00
     -1.80196571180834E-08  -2.14888079525898E-13  -1.80198720061629E-08  -3.34959906409764E-16
      8.38893787654321E-01
      0.00000000000000E+00   0.00000000000000E+00   0.00000000000000E+00   0.00000000000000E+00   0.00000000000000E+00
      0.00000000000000E+00   0.00000000000000E+00   4.56826990048479E-16   0.00000000000000E+00   0.00000000000000E+00
      0.00000000000000E+00   0.00000000000000E+00   1.82836441718266E-08  -4.95035913107550E-17   1.82836441223230E-08
     -1.17016095195229E-16  -6.29170340740741E-01  -6.29170340740741E-01   0.00000000000000E+00   0.00000000000000E+00
     -1.82836448317349E-08  -3.03165725415062E-13  -1.82839479974603E-08  -3.41408610043149E-16
      8.63893787654321E-01
      0.00000000000000E+00   0.00000000000000E+00   0.00000000000000E+00   0.00000000000000E+00   0.00000000000000E+00
      0.00000000000000E+00   0.00000000000000E+00   4.63258496614475E-16   0.00000000000000E+00   0.00000000000000E+00
      0.00000000000000E+00   0.00000000000000E+00   1.85505037295482E-08  -1.99774029467136E-16   1.85505035297742E-08
     -1.17010653714217E-16  -6.47920340740741E-01  -6.47920340740741E-01   0.00000000000000E+00   0.00000000000000E+00
     -1.85505045693557E-08  -6.06129698001439E-13  -1.85511106990537E-08  -3.47845709157500E-16
      8.88893787654321E-01
      0.00000000000000E+00   0.00000000000000E+00   0.00000000000000E+00   0.00000000000000E+00   0.00000000000000E+00
      0.00000000000000E+00   0.00000000000000E+00   4.69678593675599E-16   0.00000000000000E+00   0.00000000000000E+00
      0.00000000000000E+00   0.00000000000000E+00   1.88197928785745E-08   2.16411060670459E-15   1.88197950426851E-08
     -1.17005232262936E-16  -6.66670340740741E-01  -6.66670340740741E-01   0.00000000000000E+00   0.00000000000000E+00
     -1.88197957890889E-08   6.34171001898528E-13  -1.88191616180870E-08  -3.54271388011128E-16
      9.32227120987655E-01
      0.00000000000000E+00   0.00000000000000E+00   0.00000000000000E+00   0.00000000000000E+00   0.00000000000000E+00
      0.00000000000000E+00   0.00000000000000E+00   4.80780248419660E-16   0.00000000000000E+00   0.00000000000000E+00
      0.00000000000000E+00   0.00000000000000E+00   1.92898403928009E-08  -1.55330694925294E-15   1.92898388394939E-08
     -1.16995881071589E-16  -6.99170340740741E-01  -6.99170340740741E-01   0.00000000000000E+00   0.00000000000000E+00
     -1.92898391951278E-08   2.00975337317475E-13  -1.92896382197905E-08  -3.65382685610738E-16
      9.57227120987655E-01
      0.00000000000000E+00   0.00000000000000E+00   0.00000000000000E+00   0.00000000000000E+00   0.00000000000000E+00
      0.00000000000000E+00   0.00000000000000E+00   4.87170028904346E-16   0.00000000000000E+00   0.00000000000000E+00
      0.00000000000000E+00   0.00000000000000E+00   1.95633778107272E-08  -8.43270281574832E-16   1.95633769674569E-08
     -1.16990511879359E-16  -7.17920340740741E-01  -7.17920340740741E-01   0.00000000000000E+00   0.00000000000000E+00
     -1.95633774181337E-08  -5.28678055834903E-13  -1.95639060961896E-08  -3.71778008632361E-16
      9.83893787654321E-01
      0.00000000000000E+00   0.00000000000000E+00   0.00000000000000E+00   0.00000000000000E+00   0.00000000000000E+00
      0.00000000000000E+00   0.00000000000000E+00   4.93973893712551E-16   0.00000000000000E+00   0.00000000000000E+00
      0.00000000000000E+00   0.00000000000000E+00   1.98581276106738E-08  -1.54912718882993E-15   1.98581260615466E-08
     -1.16984804825675E-16  -7.37920340740741E-01  -7.37920340740741E-01   0.00000000000000E+00   0.00000000000000E+00
     -1.98581269099142E-08  -1.02487019694996E-12  -1.98591517801112E-08  -3.78587767863003E-16
      1.00000000000000E+00
      0.00000000000000E+00   0.00000000000000E+00   0.00000000000000E+00   0.00000000000000E+00   0.00000000000000E+00
      0.00000000000000E+00   0.00000000000000E+00   4.98077437840471E-16   0.00000000000000E+00   0.00000000000000E+00
      0.00000000000000E+00   0.00000000000000E+00   2.00369421651985E-08  -3.22473560045589E-16   2.00369418427250E-08
     -1.16981367651636E-16  -7.50000000000000E-01  -7.50000000000000E-01   0.00000000000000E+00   0.00000000000000E+00
     -2.00369420093925E-08  -2.13973484702571E-12  -2.00390817442395E-08  -3.82694861483294E-16
}
