DF-ISE text

Info {
  version   = 1.0
  type      = xyplot
  datasets  = [
    "time"
    "gate OuterVoltage" "gate InnerVoltage" "gate QuasiFermiPotential" "gate DisplacementCurrent" "gate eCurrent"
    "gate hCurrent" "gate TotalCurrent" "gate Charge" "source OuterVoltage" "source InnerVoltage"
    "source QuasiFermiPotential" "source DisplacementCurrent" "source eCurrent" "source hCurrent" "source TotalCurrent"
    "source Charge" "drain OuterVoltage" "drain InnerVoltage" "drain QuasiFermiPotential" "drain DisplacementCurrent"
    "drain eCurrent" "drain hCurrent" "drain TotalCurrent" "drain Charge" ]
  functions = [
    Time
    OuterVoltage InnerVoltage QuasiFermiPotential DisplacementCurrent eCurrent
    hCurrent TotalCurrent Charge OuterVoltage InnerVoltage
    QuasiFermiPotential DisplacementCurrent eCurrent hCurrent TotalCurrent
    Charge OuterVoltage InnerVoltage QuasiFermiPotential DisplacementCurrent
    eCurrent hCurrent TotalCurrent Charge ]
}

Data {
      0.00000000000000E+00
      0.00000000000000E+00   0.00000000000000E+00   0.00000000000000E+00   0.00000000000000E+00   0.00000000000000E+00
      0.00000000000000E+00   0.00000000000000E+00  -2.18486123918834E-16   0.00000000000000E+00   0.00000000000000E+00
      0.00000000000000E+00   0.00000000000000E+00  -1.98460111817770E-20  -1.31269990462243E-31  -1.98460111819083E-20
      1.09636877701072E-16   0.00000000000000E+00   0.00000000000000E+00   0.00000000000000E+00   0.00000000000000E+00
      3.33008796779654E-21  -1.18030920809495E-31   3.33008796767851E-21   1.10076929765813E-16
      0.00000000000000E+00
      0.00000000000000E+00   0.00000000000000E+00   0.00000000000000E+00   0.00000000000000E+00   0.00000000000000E+00
      0.00000000000000E+00   0.00000000000000E+00  -2.18486084809672E-16   0.00000000000000E+00   0.00000000000000E+00
      0.00000000000000E+00   0.00000000000000E+00   3.74430647965057E-17   9.88030229984471E-30   3.74430647965156E-17
      1.09636859512542E-16   0.00000000000000E+00   0.00000000000000E+00   0.00000000000000E+00   0.00000000000000E+00
      3.31859986268435E-17  -4.81429139905899E-29   3.31859986267953E-17   1.10076908855292E-16
      0.00000000000000E+00
      0.00000000000000E+00   0.00000000000000E+00   0.00000000000000E+00   0.00000000000000E+00   0.00000000000000E+00
      0.00000000000000E+00   0.00000000000000E+00  -2.18486084809638E-16   0.00000000000000E+00   0.00000000000000E+00
      0.00000000000000E+00   0.00000000000000E+00  -6.16979028137340E-21  -7.42447290135436E-34  -6.16979028137415E-21
      1.09636859512526E-16   0.00000000000000E+00   0.00000000000000E+00   0.00000000000000E+00   0.00000000000000E+00
      7.03308653876735E-21  -2.47495798560960E-34   7.03308653876711E-21   1.10076908855269E-16
      1.00000000000000E-03
      0.00000000000000E+00   0.00000000000000E+00   0.00000000000000E+00   0.00000000000000E+00   0.00000000000000E+00
      0.00000000000000E+00   0.00000000000000E+00  -2.18779038081742E-16   0.00000000000000E+00   0.00000000000000E+00
      0.00000000000000E+00   0.00000000000000E+00  -2.27891105051919E-09  -7.12479868260478E-27  -2.27891105051919E-09
      1.09636389844031E-16   7.80000000000000E-04   7.80000000000000E-04   0.00000000000000E+00   0.00000000000000E+00
      2.27900336761193E-09  -1.27522268156709E-26   2.27900336761193E-09   1.10369877879965E-16
      2.86666666666667E-03
      0.00000000000000E+00   0.00000000000000E+00   0.00000000000000E+00   0.00000000000000E+00   0.00000000000000E+00
      0.00000000000000E+00   0.00000000000000E+00  -2.19325701361134E-16   0.00000000000000E+00   0.00000000000000E+00
      0.00000000000000E+00   0.00000000000000E+00  -5.98120651542415E-09  -8.97955195044881E-27  -5.98120651542415E-09
      1.09635512945199E-16   2.23600000000000E-03   2.23600000000000E-03   0.00000000000000E+00   0.00000000000000E+00
      5.98121280654132E-09  -2.14956432485081E-26   5.98121280654132E-09   1.10916594172569E-16
      6.60000000000000E-03
      0.00000000000000E+00   0.00000000000000E+00   0.00000000000000E+00   0.00000000000000E+00   0.00000000000000E+00
      0.00000000000000E+00   0.00000000000000E+00  -2.20418319531036E-16   0.00000000000000E+00   0.00000000000000E+00
      0.00000000000000E+00   0.00000000000000E+00  -1.15252701898346E-08  -1.94918985360248E-26  -1.15252701898346E-08
      1.09633758964003E-16   5.14800000000000E-03   5.14800000000000E-03   0.00000000000000E+00   0.00000000000000E+00
      1.15253433277450E-08  -4.31644209361420E-26   1.15253433277450E-08   1.12009407112064E-16
      1.40666666666667E-02
      0.00000000000000E+00   0.00000000000000E+00   0.00000000000000E+00   0.00000000000000E+00   0.00000000000000E+00
      0.00000000000000E+00   0.00000000000000E+00  -2.22600768941205E-16   0.00000000000000E+00   0.00000000000000E+00
      0.00000000000000E+00   0.00000000000000E+00  -1.75857492406888E-08  -3.32933085940729E-26  -1.75857492406888E-08
      1.09630254366360E-16   1.09720000000000E-02   1.09720000000000E-02   0.00000000000000E+00   0.00000000000000E+00
      1.75857490342345E-08  -6.64727755079488E-26   1.75857490342345E-08   1.14192573604039E-16
      2.80044444444444E-02
      0.00000000000000E+00   0.00000000000000E+00   0.00000000000000E+00   0.00000000000000E+00   0.00000000000000E+00
      0.00000000000000E+00   0.00000000000000E+00  -2.26665044222115E-16   0.00000000000000E+00   0.00000000000000E+00
      0.00000000000000E+00   0.00000000000000E+00  -2.09888517822865E-08  -4.16616440515319E-26  -2.09888517822865E-08
      1.09623739597987E-16   2.18434666666667E-02   2.18434666666667E-02   0.00000000000000E+00   0.00000000000000E+00
      2.09888379861289E-08  -6.85232390866890E-26   2.09888379861289E-08   1.18259188874853E-16
      5.40216296296296E-02
      0.00000000000000E+00   0.00000000000000E+00   0.00000000000000E+00   0.00000000000000E+00   0.00000000000000E+00
      0.00000000000000E+00   0.00000000000000E+00  -2.34220101259269E-16   0.00000000000000E+00   0.00000000000000E+00
      0.00000000000000E+00   0.00000000000000E+00  -2.20331531915979E-08  -2.09396133537295E-27  -2.20331531915979E-08
      1.09611691682336E-16   4.21368711111111E-02   4.21368711111111E-02   0.00000000000000E+00   0.00000000000000E+00
      2.20331531514075E-08  -2.16924899172170E-27   2.20331531514075E-08   1.25821154472934E-16
      9.91180839506173E-02
      0.00000000000000E+00   0.00000000000000E+00   0.00000000000000E+00   0.00000000000000E+00   0.00000000000000E+00
      0.00000000000000E+00   0.00000000000000E+00  -2.47227199641757E-16   0.00000000000000E+00   0.00000000000000E+00
      0.00000000000000E+00   0.00000000000000E+00  -2.33211244240130E-08   2.39113158571937E-33  -2.33211244240130E-08
      1.09591117143151E-16   7.73121054814815E-02   7.73121054814815E-02   0.00000000000000E+00   0.00000000000000E+00
      2.33211244239434E-08   3.52107725228067E-33   2.33211244239434E-08   1.38844496095939E-16
      1.49118083950617E-01
      0.00000000000000E+00   0.00000000000000E+00   0.00000000000000E+00   0.00000000000000E+00   0.00000000000000E+00
      0.00000000000000E+00   0.00000000000000E+00  -2.61532068610012E-16   0.00000000000000E+00   0.00000000000000E+00
      0.00000000000000E+00   0.00000000000000E+00  -2.47284401399183E-08  -1.49650775550977E-25  -2.47284401399183E-08
      1.09568695397590E-16   1.16312105481481E-01   1.16312105481481E-01   0.00000000000000E+00   0.00000000000000E+00
      2.47284395749788E-08  -4.55597290175253E-26   2.47284395749788E-08   1.53170074843887E-16
      1.74118083950617E-01
      0.00000000000000E+00   0.00000000000000E+00   0.00000000000000E+00   0.00000000000000E+00   0.00000000000000E+00
      0.00000000000000E+00   0.00000000000000E+00  -2.68642942087597E-16   0.00000000000000E+00   0.00000000000000E+00
      0.00000000000000E+00   0.00000000000000E+00  -2.54259918886633E-08  -3.28809228166377E-31  -2.54259918886633E-08
      1.09557620278430E-16   1.35812105481481E-01   1.35812105481481E-01   0.00000000000000E+00   0.00000000000000E+00
      2.54259918886074E-08  -5.19555263921684E-31   2.54259918886074E-08   1.60291716296404E-16
      2.04118083950617E-01
      0.00000000000000E+00   0.00000000000000E+00   0.00000000000000E+00   0.00000000000000E+00   0.00000000000000E+00
      0.00000000000000E+00   0.00000000000000E+00  -2.77142163410101E-16   0.00000000000000E+00   0.00000000000000E+00
      0.00000000000000E+00   0.00000000000000E+00  -2.62589235260248E-08  -7.44380497179606E-28  -2.62589235260248E-08
      1.09544438973580E-16   1.59212105481481E-01   1.59212105481481E-01   0.00000000000000E+00   0.00000000000000E+00
      2.62589235261205E-08  -2.40855246513708E-28   2.62589235261205E-08   1.68803992914588E-16
      2.40118083950617E-01
      0.00000000000000E+00   0.00000000000000E+00   0.00000000000000E+00   0.00000000000000E+00   0.00000000000000E+00
      0.00000000000000E+00   0.00000000000000E+00  -2.87295413238392E-16   0.00000000000000E+00   0.00000000000000E+00
      0.00000000000000E+00   0.00000000000000E+00  -2.72537435398881E-08  -3.03837233298003E-26  -2.72537435398881E-08
      1.09528767251506E-16   1.87292105481481E-01   1.87292105481481E-01   0.00000000000000E+00   0.00000000000000E+00
      2.72537435397989E-08  -1.91960851980895E-28   2.72537435397989E-08   1.78972961272702E-16
      2.76118083950617E-01
      0.00000000000000E+00   0.00000000000000E+00   0.00000000000000E+00   0.00000000000000E+00   0.00000000000000E+00
      0.00000000000000E+00   0.00000000000000E+00  -2.97401770497322E-16   0.00000000000000E+00   0.00000000000000E+00
      0.00000000000000E+00   0.00000000000000E+00  -2.82447238688886E-08  -2.98311951574959E-28  -2.82447238688886E-08
      1.09513243214827E-16   2.15372105481481E-01   2.15372105481481E-01   0.00000000000000E+00   0.00000000000000E+00
      2.82447238689363E-08  -1.45779804117701E-29   2.82447238689363E-08   1.89095002373487E-16
      3.12118083950617E-01
      0.00000000000000E+00   0.00000000000000E+00   0.00000000000000E+00   0.00000000000000E+00   0.00000000000000E+00
      0.00000000000000E+00   0.00000000000000E+00  -3.07464083738969E-16   0.00000000000000E+00   0.00000000000000E+00
      0.00000000000000E+00   0.00000000000000E+00  -2.92330067484981E-08  -5.12879620602899E-26  -2.92330067484981E-08
      1.09497856471930E-16   2.43452105481481E-01   2.43452105481481E-01   0.00000000000000E+00   0.00000000000000E+00
      2.92330067474755E-08  -2.52152476295531E-26   2.92330067474755E-08   1.99172917416344E-16
      3.50518083950617E-01
      0.00000000000000E+00   0.00000000000000E+00   0.00000000000000E+00   0.00000000000000E+00   0.00000000000000E+00
      0.00000000000000E+00   0.00000000000000E+00  -3.18151471376558E-16   0.00000000000000E+00   0.00000000000000E+00
      0.00000000000000E+00   0.00000000000000E+00  -3.02852843810805E-08   7.46040584162767E-28  -3.02852843810805E-08
      1.09481585165262E-16   2.73404105481482E-01   2.73404105481482E-01   0.00000000000000E+00   0.00000000000000E+00
      3.02852843812267E-08  -1.51756072588674E-27   3.02852843812267E-08   2.09876831623971E-16
      3.91478083950617E-01
      0.00000000000000E+00   0.00000000000000E+00   0.00000000000000E+00   0.00000000000000E+00   0.00000000000000E+00
      0.00000000000000E+00   0.00000000000000E+00  -3.29502216730697E-16   0.00000000000000E+00   0.00000000000000E+00
      0.00000000000000E+00   0.00000000000000E+00  -3.14066504932519E-08   1.67636465713587E-25  -3.14066504932519E-08
      1.09464379348904E-16   3.05352905481482E-01   3.05352905481482E-01   0.00000000000000E+00   0.00000000000000E+00
      3.14066475828079E-08  -1.81717983106989E-25   3.14066475828079E-08   2.21245045302700E-16
      4.41478083950617E-01
      0.00000000000000E+00   0.00000000000000E+00   0.00000000000000E+00   0.00000000000000E+00   0.00000000000000E+00
      0.00000000000000E+00   0.00000000000000E+00  -3.43293352527974E-16   0.00000000000000E+00   0.00000000000000E+00
      0.00000000000000E+00   0.00000000000000E+00  -3.27754569027500E-08   1.07352712111198E-24  -3.27754569027500E-08
      1.09443572171692E-16   3.44352905481482E-01   3.44352905481482E-01   0.00000000000000E+00   0.00000000000000E+00
      3.27748638776836E-08  -9.18607099038064E-23   3.27748638776835E-08   2.35057290916589E-16
      4.91478083950617E-01
      0.00000000000000E+00   0.00000000000000E+00   0.00000000000000E+00   0.00000000000000E+00   0.00000000000000E+00
      0.00000000000000E+00   0.00000000000000E+00  -3.57017457201215E-16   0.00000000000000E+00   0.00000000000000E+00
      0.00000000000000E+00   0.00000000000000E+00  -3.41456573212895E-08  -1.44967594144877E-24  -3.41456573212895E-08
      1.09422965782635E-16   3.83352905481482E-01   3.83352905481482E-01   0.00000000000000E+00   0.00000000000000E+00
      3.41452777675567E-08  -2.25859681968580E-23   3.41452777675566E-08   2.48802315835768E-16
      5.41478083950617E-01
      0.00000000000000E+00   0.00000000000000E+00   0.00000000000000E+00   0.00000000000000E+00   0.00000000000000E+00
      0.00000000000000E+00   0.00000000000000E+00  -3.70678379631475E-16   0.00000000000000E+00   0.00000000000000E+00
      0.00000000000000E+00   0.00000000000000E+00  -3.55185476979708E-08  -1.80034892404637E-26  -3.55185476979708E-08
      1.09402546603822E-16   4.22352905481482E-01   4.22352905481482E-01   0.00000000000000E+00   0.00000000000000E+00
      3.55185449782626E-08  -3.07410611870430E-23   3.55185449782625E-08   2.62483978196471E-16
      5.91478083950617E-01
      0.00000000000000E+00   0.00000000000000E+00   0.00000000000000E+00   0.00000000000000E+00   0.00000000000000E+00
      0.00000000000000E+00   0.00000000000000E+00  -3.84279461869976E-16   0.00000000000000E+00   0.00000000000000E+00
      0.00000000000000E+00   0.00000000000000E+00  -3.68952160788395E-08  -2.78950572453766E-24  -3.68952160788395E-08
      1.09382302885408E-16   4.61352905481482E-01   4.61352905481482E-01   0.00000000000000E+00   0.00000000000000E+00
      3.68952096226374E-08   2.43106826099247E-21   3.68952096226398E-08   2.76105626111620E-16
      6.41478083950617E-01
      0.00000000000000E+00   0.00000000000000E+00   0.00000000000000E+00   0.00000000000000E+00   0.00000000000000E+00
      0.00000000000000E+00   0.00000000000000E+00  -3.97823633948478E-16   0.00000000000000E+00   0.00000000000000E+00
      0.00000000000000E+00   0.00000000000000E+00  -3.82765904394521E-08  -7.22786933242213E-24  -3.82765904394521E-08
      1.09362224302483E-16   5.00352905481482E-01   5.00352905481482E-01   0.00000000000000E+00   0.00000000000000E+00
      3.82765154997170E-08  -3.24455510905248E-24   3.82765154997170E-08   2.89670194857748E-16
      6.91478083950617E-01
      0.00000000000000E+00   0.00000000000000E+00   0.00000000000000E+00   0.00000000000000E+00   0.00000000000000E+00
      0.00000000000000E+00   0.00000000000000E+00  -4.11313472625571E-16   0.00000000000000E+00   0.00000000000000E+00
      0.00000000000000E+00   0.00000000000000E+00  -3.96634653448226E-08  -1.21023711331777E-25  -3.96634653448226E-08
      1.09342301753741E-16   5.39352905481482E-01   5.39352905481482E-01   0.00000000000000E+00   0.00000000000000E+00
      3.96634643816262E-08   2.85437111041719E-22   3.96634643816265E-08   3.03180270885943E-16
      7.41478083950618E-01
      0.00000000000000E+00   0.00000000000000E+00   0.00000000000000E+00   0.00000000000000E+00   0.00000000000000E+00
      0.00000000000000E+00   0.00000000000000E+00  -4.24751253843917E-16   0.00000000000000E+00   0.00000000000000E+00
      0.00000000000000E+00   0.00000000000000E+00  -4.10565274865844E-08  -6.84284939364535E-23  -4.10565274865845E-08
      1.09322527168244E-16   5.78352905481482E-01   5.78352905481482E-01   0.00000000000000E+00   0.00000000000000E+00
      4.10565274780637E-08   6.81587771527552E-20   4.10565274781319E-08   3.16638142560663E-16
      7.91478083950618E-01
      0.00000000000000E+00   0.00000000000000E+00   0.00000000000000E+00   0.00000000000000E+00   0.00000000000000E+00
      0.00000000000000E+00   0.00000000000000E+00  -4.38138997781432E-16   0.00000000000000E+00   0.00000000000000E+00
      0.00000000000000E+00   0.00000000000000E+00  -4.24563735736621E-08  -3.66925540096482E-23  -4.24563735736621E-08
      1.09302893353875E-16   6.17352905481482E-01   6.17352905481482E-01   0.00000000000000E+00   0.00000000000000E+00
      4.24563728052004E-08   3.30880035300044E-19   4.24563728055312E-08   3.30045837896220E-16
      8.41478083950618E-01
      0.00000000000000E+00   0.00000000000000E+00   0.00000000000000E+00   0.00000000000000E+00   0.00000000000000E+00
      0.00000000000000E+00   0.00000000000000E+00  -4.51478501551260E-16   0.00000000000000E+00   0.00000000000000E+00
      0.00000000000000E+00   0.00000000000000E+00  -4.38635261818666E-08  -9.03521361745904E-25  -4.38635261818666E-08
      1.09283393845825E-16   6.56352905481482E-01   6.56352905481482E-01   0.00000000000000E+00   0.00000000000000E+00
      4.38635261749077E-08  -1.49182663943756E-21   4.38635261749062E-08   3.43405161206427E-16
      8.91478083950618E-01
      0.00000000000000E+00   0.00000000000000E+00   0.00000000000000E+00   0.00000000000000E+00   0.00000000000000E+00
      0.00000000000000E+00   0.00000000000000E+00  -4.64771364846088E-16   0.00000000000000E+00   0.00000000000000E+00
      0.00000000000000E+00   0.00000000000000E+00  -4.52784464497298E-08  -3.26787726512252E-26  -4.52784464497298E-08
      1.09264022781247E-16   6.95352905481482E-01   6.95352905481482E-01   0.00000000000000E+00   0.00000000000000E+00
      4.52784464491186E-08   4.90250961653708E-22   4.52784464491191E-08   3.56717716893040E-16
      9.41478083950618E-01
      0.00000000000000E+00   0.00000000000000E+00   0.00000000000000E+00   0.00000000000000E+00   0.00000000000000E+00
      0.00000000000000E+00   0.00000000000000E+00  -4.78019014860604E-16   0.00000000000000E+00   0.00000000000000E+00
      0.00000000000000E+00   0.00000000000000E+00  -4.67015412604411E-08  -9.18705772890319E-25  -4.67015412604411E-08
      1.09244774868960E-16   7.34352905481482E-01   7.34352905481482E-01   0.00000000000000E+00   0.00000000000000E+00
      4.67015412605937E-08   2.99130415507408E-20   4.67015412606237E-08   3.69984936728028E-16
      9.91478083950618E-01
      0.00000000000000E+00   0.00000000000000E+00   0.00000000000000E+00   0.00000000000000E+00   0.00000000000000E+00
      0.00000000000000E+00   0.00000000000000E+00  -4.91222726770248E-16   0.00000000000000E+00   0.00000000000000E+00
      0.00000000000000E+00   0.00000000000000E+00  -4.81331719855898E-08  -1.12364137471212E-22  -4.81331719855899E-08
      1.09225645305295E-16   7.73352905481482E-01   7.73352905481482E-01   0.00000000000000E+00   0.00000000000000E+00
      4.81331719814523E-08   1.21727535352836E-18   4.81331719826696E-08   3.83208100824456E-16
      1.00000000000000E+00
      0.00000000000000E+00   0.00000000000000E+00   0.00000000000000E+00   0.00000000000000E+00   0.00000000000000E+00
      0.00000000000000E+00   0.00000000000000E+00  -4.93468846799373E-16   0.00000000000000E+00   0.00000000000000E+00
      0.00000000000000E+00   0.00000000000000E+00  -4.83780518025832E-08  -1.41713429805395E-22  -4.83780518025834E-08
      1.09222396379734E-16   7.80000000000000E-01   7.80000000000000E-01   0.00000000000000E+00   0.00000000000000E+00
      4.83780517989886E-08   1.30684765686237E-18   4.83780518002955E-08   3.85457524885962E-16
}
