DF-ISE text

Info {
  version   = 1.0
  type      = xyplot
  datasets  = [
    "time"
    "gate OuterVoltage" "gate InnerVoltage" "gate QuasiFermiPotential" "gate DisplacementCurrent" "gate eCurrent"
    "gate hCurrent" "gate TotalCurrent" "gate Charge" "source OuterVoltage" "source InnerVoltage"
    "source QuasiFermiPotential" "source DisplacementCurrent" "source eCurrent" "source hCurrent" "source TotalCurrent"
    "source Charge" "drain OuterVoltage" "drain InnerVoltage" "drain QuasiFermiPotential" "drain DisplacementCurrent"
    "drain eCurrent" "drain hCurrent" "drain TotalCurrent" "drain Charge" ]
  functions = [
    Time
    OuterVoltage InnerVoltage QuasiFermiPotential DisplacementCurrent eCurrent
    hCurrent TotalCurrent Charge OuterVoltage InnerVoltage
    QuasiFermiPotential DisplacementCurrent eCurrent hCurrent TotalCurrent
    Charge OuterVoltage InnerVoltage QuasiFermiPotential DisplacementCurrent
    eCurrent hCurrent TotalCurrent Charge ]
}

Data {
      0.00000000000000E+00
      0.00000000000000E+00   0.00000000000000E+00   0.00000000000000E+00   0.00000000000000E+00   0.00000000000000E+00
      0.00000000000000E+00   0.00000000000000E+00  -2.32968141280407E-16   0.00000000000000E+00   0.00000000000000E+00
      0.00000000000000E+00   0.00000000000000E+00   7.68338382466832E-21  -1.57711702546045E-32   7.68338382465255E-21
      1.18193265080060E-16   0.00000000000000E+00   0.00000000000000E+00   0.00000000000000E+00   0.00000000000000E+00
     -9.86610123061595E-22   8.46937540946200E-32  -9.86610122976902E-22   1.18754654554411E-16
      0.00000000000000E+00
      0.00000000000000E+00   0.00000000000000E+00   0.00000000000000E+00   0.00000000000000E+00   0.00000000000000E+00
      0.00000000000000E+00   0.00000000000000E+00  -2.32968023579664E-16   0.00000000000000E+00   0.00000000000000E+00
      0.00000000000000E+00   0.00000000000000E+00   4.24838044373417E-16   3.03001777788422E-27   4.24838044376447E-16
      1.18193210895508E-16   0.00000000000000E+00   0.00000000000000E+00   0.00000000000000E+00   0.00000000000000E+00
      9.86992863984547E-17   2.46698158495376E-26   9.86992864231245E-17   1.18754591052823E-16
      0.00000000000000E+00
      0.00000000000000E+00   0.00000000000000E+00   0.00000000000000E+00   0.00000000000000E+00   0.00000000000000E+00
      0.00000000000000E+00   0.00000000000000E+00  -2.32968023579363E-16   0.00000000000000E+00   0.00000000000000E+00
      0.00000000000000E+00   0.00000000000000E+00   9.57493723422307E-21   5.37090374617974E-34   9.57493723422361E-21
      1.18193210895394E-16   0.00000000000000E+00   0.00000000000000E+00   0.00000000000000E+00   0.00000000000000E+00
     -1.74441658855100E-21   3.89052696180357E-33  -1.74441658854711E-21   1.18754591052665E-16
      1.00000000000000E-03
      0.00000000000000E+00   0.00000000000000E+00   0.00000000000000E+00   0.00000000000000E+00   0.00000000000000E+00
      0.00000000000000E+00   0.00000000000000E+00  -2.33305794220703E-16   0.00000000000000E+00   0.00000000000000E+00
      0.00000000000000E+00   0.00000000000000E+00  -1.05831189351771E-10   4.71248051497348E-28  -1.05831189351771E-10
      1.18193211002701E-16   9.00000000000000E-04   9.00000000000000E-04   0.00000000000000E+00   0.00000000000000E+00
      1.07116955429817E-10   1.29594497654588E-25   1.07116955429818E-10   1.19092128611771E-16
      2.86666666666667E-03
      0.00000000000000E+00   0.00000000000000E+00   0.00000000000000E+00   0.00000000000000E+00   0.00000000000000E+00
      0.00000000000000E+00   0.00000000000000E+00  -2.33936073573891E-16   0.00000000000000E+00   0.00000000000000E+00
      0.00000000000000E+00   0.00000000000000E+00  -2.88752139516664E-10  -2.89336257490791E-30  -2.88752139516664E-10
      1.18193211185773E-16   2.58000000000000E-03   2.58000000000000E-03   0.00000000000000E+00   0.00000000000000E+00
      2.88752139516377E-10   4.58918949638950E-29   2.88752139516377E-10   1.19721988631286E-16
      6.35111111111111E-03
      0.00000000000000E+00   0.00000000000000E+00   0.00000000000000E+00   0.00000000000000E+00   0.00000000000000E+00
      0.00000000000000E+00   0.00000000000000E+00  -2.35111815433110E-16   0.00000000000000E+00   0.00000000000000E+00
      0.00000000000000E+00   0.00000000000000E+00  -5.84325898704043E-10  -1.10550897450275E-30  -5.84325898704043E-10
      1.18193211474375E-16   5.71600000000000E-03   5.71600000000000E-03   0.00000000000000E+00   0.00000000000000E+00
      5.84325898705883E-10  -3.38884443234266E-31   5.84325898705883E-10   1.20896999857702E-16
      1.23908148148148E-02
      0.00000000000000E+00   0.00000000000000E+00   0.00000000000000E+00   0.00000000000000E+00   0.00000000000000E+00
      0.00000000000000E+00   0.00000000000000E+00  -2.37147402361072E-16   0.00000000000000E+00   0.00000000000000E+00
      0.00000000000000E+00   0.00000000000000E+00  -9.79376602169018E-10  -1.47684471501898E-27  -9.79376602169018E-10
      1.18193211842917E-16   1.11517333333333E-02   1.11517333333333E-02   0.00000000000000E+00   0.00000000000000E+00
      9.79376602069247E-10   7.83043233157583E-28   9.79376602069247E-10   1.22931466845953E-16
      2.36649283950617E-02
      0.00000000000000E+00   0.00000000000000E+00   0.00000000000000E+00   0.00000000000000E+00   0.00000000000000E+00
      0.00000000000000E+00   0.00000000000000E+00  -2.40939367068354E-16   0.00000000000000E+00   0.00000000000000E+00
      0.00000000000000E+00   0.00000000000000E+00  -1.43362309248187E-09  -6.71653533455326E-29  -1.43362309248187E-09
      1.18193212228236E-16   2.12984355555556E-02   2.12984355555556E-02   0.00000000000000E+00   0.00000000000000E+00
      1.43362309242171E-09   2.09126702796118E-29   1.43362309242171E-09   1.26721760486076E-16
      4.32067252674897E-02
      0.00000000000000E+00   0.00000000000000E+00   0.00000000000000E+00   0.00000000000000E+00   0.00000000000000E+00
      0.00000000000000E+00   0.00000000000000E+00  -2.47489184036163E-16   0.00000000000000E+00   0.00000000000000E+00
      0.00000000000000E+00   0.00000000000000E+00  -1.74353413883010E-09  -1.97793089666753E-31  -1.74353413883010E-09
      1.18193212418742E-16   3.88860527407408E-02   3.88860527407408E-02   0.00000000000000E+00   0.00000000000000E+00
      1.74353413880710E-09   4.23215673801474E-31   1.74353413880710E-09   1.33269638326337E-16
      7.44736002633745E-02
      0.00000000000000E+00   0.00000000000000E+00   0.00000000000000E+00   0.00000000000000E+00   0.00000000000000E+00
      0.00000000000000E+00   0.00000000000000E+00  -2.57912730269609E-16   0.00000000000000E+00   0.00000000000000E+00
      0.00000000000000E+00   0.00000000000000E+00  -1.82128773908956E-09   2.00686636555368E-27  -1.82128773908956E-09
      1.18193212330603E-16   6.70262402370371E-02   6.70262402370371E-02   0.00000000000000E+00   0.00000000000000E+00
      1.82128773178738E-09   1.23283930284383E-26   1.82128773178738E-09   1.43691579451090E-16
      1.24473600263375E-01
      0.00000000000000E+00   0.00000000000000E+00   0.00000000000000E+00   0.00000000000000E+00   0.00000000000000E+00
      0.00000000000000E+00   0.00000000000000E+00  -2.74451934834880E-16   0.00000000000000E+00   0.00000000000000E+00
      0.00000000000000E+00   0.00000000000000E+00  -1.83421435759854E-09   3.39346493263197E-28  -1.83421435759854E-09
      1.18193212091546E-16   1.12026240237037E-01   1.12026240237037E-01   0.00000000000000E+00   0.00000000000000E+00
      1.83421431986580E-09  -2.33606305440498E-27   1.83421431986580E-09   1.60229822710873E-16
      1.74473600263374E-01
      0.00000000000000E+00   0.00000000000000E+00   0.00000000000000E+00   0.00000000000000E+00   0.00000000000000E+00
      0.00000000000000E+00   0.00000000000000E+00  -2.90849248828149E-16   0.00000000000000E+00   0.00000000000000E+00
      0.00000000000000E+00   0.00000000000000E+00  -1.84504286247063E-09  -1.28442703184171E-26  -1.84504286247063E-09
      1.18193211854965E-16   1.57026240237037E-01   1.57026240237037E-01   0.00000000000000E+00   0.00000000000000E+00
      1.84504286240769E-09  -7.12524479408971E-27   1.84504286240769E-09   1.76626845812837E-16
      2.24473600263374E-01
      0.00000000000000E+00   0.00000000000000E+00   0.00000000000000E+00   0.00000000000000E+00   0.00000000000000E+00
      0.00000000000000E+00   0.00000000000000E+00  -3.07120343988482E-16   0.00000000000000E+00   0.00000000000000E+00
      0.00000000000000E+00   0.00000000000000E+00  -1.85487573577711E-09   5.26667360119205E-27  -1.85487573577711E-09
      1.18193211621330E-16   2.02026240237037E-01   2.02026240237037E-01   0.00000000000000E+00   0.00000000000000E+00
      1.85487573572995E-09   2.63456751299944E-27   1.85487573572995E-09   1.92897851964487E-16
      2.74473600263374E-01
      0.00000000000000E+00   0.00000000000000E+00   0.00000000000000E+00   0.00000000000000E+00   0.00000000000000E+00
      0.00000000000000E+00   0.00000000000000E+00  -3.23277979105006E-16   0.00000000000000E+00   0.00000000000000E+00
      0.00000000000000E+00   0.00000000000000E+00  -1.86390300458120E-09  -5.23467761229222E-27  -1.86390300458120E-09
      1.18193211390306E-16   2.47026240237037E-01   2.47026240237037E-01   0.00000000000000E+00   0.00000000000000E+00
      1.86390300306610E-09  -2.08091358544516E-25   1.86390300306610E-09   2.09055459673454E-16
      3.24473600263374E-01
      0.00000000000000E+00   0.00000000000000E+00   0.00000000000000E+00   0.00000000000000E+00   0.00000000000000E+00
      0.00000000000000E+00   0.00000000000000E+00  -3.39332897277075E-16   0.00000000000000E+00   0.00000000000000E+00
      0.00000000000000E+00   0.00000000000000E+00  -1.87229091380406E-09  -1.50901268046832E-25  -1.87229091380406E-09
      1.18193211161397E-16   2.92026240237037E-01   2.92026240237037E-01   0.00000000000000E+00   0.00000000000000E+00
      1.87229091401095E-09  -1.57697287921470E-25   1.87229091401095E-09   2.25110369461038E-16
      3.74473600263374E-01
      0.00000000000000E+00   0.00000000000000E+00   0.00000000000000E+00   0.00000000000000E+00   0.00000000000000E+00
      0.00000000000000E+00   0.00000000000000E+00  -3.55294234576655E-16   0.00000000000000E+00   0.00000000000000E+00
      0.00000000000000E+00   0.00000000000000E+00  -1.88010173868959E-09   7.49696142205595E-26  -1.88010173868959E-09
      1.18193210933223E-16   3.37026240237037E-01   3.37026240237037E-01   0.00000000000000E+00   0.00000000000000E+00
      1.88010170891472E-09  -6.43689097863834E-25   1.88010170891472E-09   2.41071703101417E-16
      4.24473600263374E-01
      0.00000000000000E+00   0.00000000000000E+00   0.00000000000000E+00   0.00000000000000E+00   0.00000000000000E+00
      0.00000000000000E+00   0.00000000000000E+00  -3.71169678735596E-16   0.00000000000000E+00   0.00000000000000E+00
      0.00000000000000E+00   0.00000000000000E+00  -1.88739511451507E-09   5.99223870542391E-25  -1.88739511451507E-09
      1.18193210701881E-16   3.82026240237037E-01   3.82026240237037E-01   0.00000000000000E+00   0.00000000000000E+00
      1.88739523871020E-09   8.82358754873986E-24   1.88739523871021E-09   2.56947144576871E-16
      4.74473600263374E-01
      0.00000000000000E+00   0.00000000000000E+00   0.00000000000000E+00   0.00000000000000E+00   0.00000000000000E+00
      0.00000000000000E+00   0.00000000000000E+00  -3.86965544906562E-16   0.00000000000000E+00   0.00000000000000E+00
      0.00000000000000E+00   0.00000000000000E+00  -1.89427003665144E-09  -2.44280992820975E-25  -1.89427003665144E-09
      1.18193210453315E-16   4.27026240237037E-01   4.27026240237037E-01   0.00000000000000E+00   0.00000000000000E+00
      1.89427004124206E-09   2.27194498223578E-24   1.89427004124206E-09   2.72743005795927E-16
      5.24473600263374E-01
      0.00000000000000E+00   0.00000000000000E+00   0.00000000000000E+00   0.00000000000000E+00   0.00000000000000E+00
      0.00000000000000E+00   0.00000000000000E+00  -4.02686856314747E-16   0.00000000000000E+00   0.00000000000000E+00
      0.00000000000000E+00   0.00000000000000E+00  -1.90078581064576E-09  -2.59541310747324E-24  -1.90078581064577E-09
      1.18193210146121E-16   4.72026240237037E-01   4.72026240237037E-01   0.00000000000000E+00   0.00000000000000E+00
      1.90078579726131E-09  -2.00890888063706E-23   1.90078579726129E-09   2.88464302594752E-16
      5.74473600263374E-01
      0.00000000000000E+00   0.00000000000000E+00   0.00000000000000E+00   0.00000000000000E+00   0.00000000000000E+00
      0.00000000000000E+00   0.00000000000000E+00  -4.18337473264737E-16   0.00000000000000E+00   0.00000000000000E+00
      0.00000000000000E+00   0.00000000000000E+00  -1.90697306571633E-09  -6.25009845683792E-23  -1.90697306571640E-09
      1.18193209656692E-16   5.17026240237037E-01   5.17026240237037E-01   0.00000000000000E+00   0.00000000000000E+00
      1.90697307819167E-09  -7.62920447847281E-22   1.90697307819090E-09   3.04114880199790E-16
      6.24473600263375E-01
      0.00000000000000E+00   0.00000000000000E+00   0.00000000000000E+00   0.00000000000000E+00   0.00000000000000E+00
      0.00000000000000E+00   0.00000000000000E+00  -4.33920273740243E-16   0.00000000000000E+00   0.00000000000000E+00
      0.00000000000000E+00   0.00000000000000E+00  -1.91284726240634E-09   3.00325350066883E-26  -1.91284726240634E-09
      1.18193208689836E-16   5.62026240237037E-01   5.62026240237037E-01   0.00000000000000E+00   0.00000000000000E+00
      1.91284726570562E-09  -2.08838588935355E-23   1.91284726570560E-09   3.19697579278767E-16
      6.74473600263375E-01
      0.00000000000000E+00   0.00000000000000E+00   0.00000000000000E+00   0.00000000000000E+00   0.00000000000000E+00
      0.00000000000000E+00   0.00000000000000E+00  -4.49437337546348E-16   0.00000000000000E+00   0.00000000000000E+00
      0.00000000000000E+00   0.00000000000000E+00  -1.91844188058506E-09  -9.30337551863200E-23  -1.91844188058515E-09
      1.18193206861655E-16   6.07026240237037E-01   6.07026240237037E-01   0.00000000000000E+00   0.00000000000000E+00
      1.91844187204472E-09   1.28198248188847E-21   1.91844187204600E-09   3.35214430188606E-16
      7.24473600263375E-01
      0.00000000000000E+00   0.00000000000000E+00   0.00000000000000E+00   0.00000000000000E+00   0.00000000000000E+00
      0.00000000000000E+00   0.00000000000000E+00  -4.64890021821278E-16   0.00000000000000E+00   0.00000000000000E+00
      0.00000000000000E+00   0.00000000000000E+00  -1.92379802489965E-09  -2.26823701392533E-23  -1.92379802489967E-09
      1.18193204668138E-16   6.52026240237037E-01   6.52026240237037E-01   0.00000000000000E+00   0.00000000000000E+00
      1.92379803148363E-09  -2.07153614822791E-22   1.92379803148342E-09   3.50666855815619E-16
      7.74473600263375E-01
      0.00000000000000E+00   0.00000000000000E+00   0.00000000000000E+00   0.00000000000000E+00   0.00000000000000E+00
      0.00000000000000E+00   0.00000000000000E+00  -4.80279319292232E-16   0.00000000000000E+00   0.00000000000000E+00
      0.00000000000000E+00   0.00000000000000E+00  -1.92893983438885E-09  -1.36951155303406E-22  -1.92893983438899E-09
      1.18193202231382E-16   6.97026240237037E-01   6.97026240237037E-01   0.00000000000000E+00   0.00000000000000E+00
      1.92893982634982E-09  -4.01892233563051E-22   1.92893982634942E-09   3.66055865176810E-16
      8.24473600263375E-01
      0.00000000000000E+00   0.00000000000000E+00   0.00000000000000E+00   0.00000000000000E+00   0.00000000000000E+00
      0.00000000000000E+00   0.00000000000000E+00  -4.95606193869804E-16   0.00000000000000E+00   0.00000000000000E+00
      0.00000000000000E+00   0.00000000000000E+00  -1.93389527323656E-09  -1.15767826913626E-22  -1.93389527323668E-09
      1.18193198075738E-16   7.42026240237037E-01   7.42026240237037E-01   0.00000000000000E+00   0.00000000000000E+00
      1.93389528043616E-09   2.35129076566398E-23   1.93389528043618E-09   3.81382231733233E-16
      8.74473600263375E-01
      0.00000000000000E+00   0.00000000000000E+00   0.00000000000000E+00   0.00000000000000E+00   0.00000000000000E+00
      0.00000000000000E+00   0.00000000000000E+00  -5.10871635146054E-16   0.00000000000000E+00   0.00000000000000E+00
      0.00000000000000E+00   0.00000000000000E+00  -1.93868705834638E-09  -2.55607406169799E-21  -1.93868705834894E-09
      1.18193189931971E-16   7.87026240237037E-01   7.87026240237037E-01   0.00000000000000E+00   0.00000000000000E+00
      1.93868716065223E-09  -1.25260307199761E-22   1.93868716065210E-09   3.96646655168680E-16
      9.24473600263375E-01
      0.00000000000000E+00   0.00000000000000E+00   0.00000000000000E+00   0.00000000000000E+00   0.00000000000000E+00
      0.00000000000000E+00   0.00000000000000E+00  -5.26076967587575E-16   0.00000000000000E+00   0.00000000000000E+00
      0.00000000000000E+00   0.00000000000000E+00  -1.94335195223921E-09  -4.85469406910302E-23  -1.94335195223926E-09
      1.18193173417513E-16   8.32026240237037E-01   8.32026240237037E-01   0.00000000000000E+00   0.00000000000000E+00
      1.94335195270277E-09  -5.06295476563458E-23   1.94335195270272E-09   4.11849902928216E-16
      9.74473600263375E-01
      0.00000000000000E+00   0.00000000000000E+00   0.00000000000000E+00   0.00000000000000E+00   0.00000000000000E+00
      0.00000000000000E+00   0.00000000000000E+00  -5.41224205573694E-16   0.00000000000000E+00   0.00000000000000E+00
      0.00000000000000E+00   0.00000000000000E+00  -1.94796313638920E-09  -1.35977359466589E-20  -1.94796313640280E-09
      1.18193140139373E-16   8.77026240237037E-01   8.77026240237037E-01   0.00000000000000E+00   0.00000000000000E+00
      1.94796340691701E-09  -3.62773416774646E-21   1.94796340691339E-09   4.26992926771198E-16
      1.00000000000000E+00
      0.00000000000000E+00   0.00000000000000E+00   0.00000000000000E+00   0.00000000000000E+00   0.00000000000000E+00
      0.00000000000000E+00   0.00000000000000E+00  -5.48935864084742E-16   0.00000000000000E+00   0.00000000000000E+00
      0.00000000000000E+00   0.00000000000000E+00  -1.95033489262216E-09  -1.66553290177507E-22  -1.95033489262233E-09
      1.18193112025782E-16   9.00000000000000E-01   9.00000000000000E-01   0.00000000000000E+00   0.00000000000000E+00
      1.95033481025374E-09   2.35666708241300E-17   1.95033483382041E-09   4.34701024503552E-16
}
