DF-ISE text

Info {
  version   = 1.0
  type      = xyplot
  datasets  = [
    "time"
    "gate OuterVoltage" "gate InnerVoltage" "gate QuasiFermiPotential" "gate DisplacementCurrent" "gate eCurrent"
    "gate hCurrent" "gate TotalCurrent" "gate Charge" "source OuterVoltage" "source InnerVoltage"
    "source QuasiFermiPotential" "source DisplacementCurrent" "source eCurrent" "source hCurrent" "source TotalCurrent"
    "source Charge" "drain OuterVoltage" "drain InnerVoltage" "drain QuasiFermiPotential" "drain DisplacementCurrent"
    "drain eCurrent" "drain hCurrent" "drain TotalCurrent" "drain Charge" ]
  functions = [
    Time
    OuterVoltage InnerVoltage QuasiFermiPotential DisplacementCurrent eCurrent
    hCurrent TotalCurrent Charge OuterVoltage InnerVoltage
    QuasiFermiPotential DisplacementCurrent eCurrent hCurrent TotalCurrent
    Charge OuterVoltage InnerVoltage QuasiFermiPotential DisplacementCurrent
    eCurrent hCurrent TotalCurrent Charge ]
}

Data {
      0.00000000000000E+00
      0.00000000000000E+00   0.00000000000000E+00   0.00000000000000E+00   0.00000000000000E+00   0.00000000000000E+00
      0.00000000000000E+00   0.00000000000000E+00  -2.21652345404271E-16   0.00000000000000E+00   0.00000000000000E+00
      0.00000000000000E+00   0.00000000000000E+00  -5.04486326326137E-21  -1.67797212861666E-31  -5.04486326342917E-21
      1.11222881166646E-16   0.00000000000000E+00   0.00000000000000E+00   0.00000000000000E+00   0.00000000000000E+00
     -5.06140608187513E-21  -1.45665981139718E-31  -5.06140608202079E-21   1.11642192348622E-16
      0.00000000000000E+00
      0.00000000000000E+00   0.00000000000000E+00   0.00000000000000E+00   0.00000000000000E+00   0.00000000000000E+00
      0.00000000000000E+00   0.00000000000000E+00  -2.21652286732394E-16   0.00000000000000E+00   0.00000000000000E+00
      0.00000000000000E+00   0.00000000000000E+00   8.52379778026723E-17   2.00296297511819E-30   8.52379778026744E-17
      1.11222853601987E-16   0.00000000000000E+00   0.00000000000000E+00   0.00000000000000E+00   0.00000000000000E+00
      5.70142241043479E-17  -6.46088339590085E-29   5.70142241042833E-17   1.11642161240855E-16
      0.00000000000000E+00
      0.00000000000000E+00   0.00000000000000E+00   0.00000000000000E+00   0.00000000000000E+00   0.00000000000000E+00
      0.00000000000000E+00   0.00000000000000E+00  -2.21652286732325E-16   0.00000000000000E+00   0.00000000000000E+00
      0.00000000000000E+00   0.00000000000000E+00  -2.89125647726657E-20  -1.87684061404809E-33  -2.89125647726675E-20
      1.11222853601954E-16   0.00000000000000E+00   0.00000000000000E+00   0.00000000000000E+00   0.00000000000000E+00
     -3.67398800241446E-20  -2.05440235742566E-33  -3.67398800241467E-20   1.11642161240812E-16
      1.00000000000000E-03
      0.00000000000000E+00   0.00000000000000E+00   0.00000000000000E+00   0.00000000000000E+00   0.00000000000000E+00
      0.00000000000000E+00   0.00000000000000E+00  -2.21956364114065E-16   0.00000000000000E+00   0.00000000000000E+00
      0.00000000000000E+00   0.00000000000000E+00  -1.76761139033025E-09  -6.39574347441325E-27  -1.76761139033025E-09
      1.11222578736884E-16   8.00000000000000E-04   8.00000000000000E-04   0.00000000000000E+00   0.00000000000000E+00
      1.76826131762945E-09   3.70356778227770E-27   1.76826131762945E-09   1.11946149488319E-16
      2.86666666666667E-03
      0.00000000000000E+00   0.00000000000000E+00   0.00000000000000E+00   0.00000000000000E+00   0.00000000000000E+00
      0.00000000000000E+00   0.00000000000000E+00  -2.22523776460757E-16   0.00000000000000E+00   0.00000000000000E+00
      0.00000000000000E+00   0.00000000000000E+00  -4.66968704138728E-09  -1.73596661324679E-26  -4.66968704138728E-09
      1.11222065378375E-16   2.29333333333333E-03   2.29333333333333E-03   0.00000000000000E+00   0.00000000000000E+00
      4.66969574856978E-09  -5.07339089881586E-25   4.66969574856977E-09   1.12513415584045E-16
      6.60000000000000E-03
      0.00000000000000E+00   0.00000000000000E+00   0.00000000000000E+00   0.00000000000000E+00   0.00000000000000E+00
      0.00000000000000E+00   0.00000000000000E+00  -2.23657831310266E-16   0.00000000000000E+00   0.00000000000000E+00
      0.00000000000000E+00   0.00000000000000E+00  -9.19977430512780E-09   1.00701288810003E-26  -9.19977430512780E-09
      1.11221038105386E-16   5.28000000000000E-03   5.28000000000000E-03   0.00000000000000E+00   0.00000000000000E+00
      9.19988713237684E-09   1.64318709171482E-26   9.19988713237684E-09   1.13647253142400E-16
      1.40666666666667E-02
      0.00000000000000E+00   0.00000000000000E+00   0.00000000000000E+00   0.00000000000000E+00   0.00000000000000E+00
      0.00000000000000E+00   0.00000000000000E+00  -2.25922914300876E-16   0.00000000000000E+00   0.00000000000000E+00
      0.00000000000000E+00   0.00000000000000E+00  -1.47415145040610E-08   3.93651232416032E-26  -1.47415145040610E-08
      1.11218984176638E-16   1.12533333333333E-02   1.12533333333333E-02   0.00000000000000E+00   0.00000000000000E+00
      1.47415143205814E-08   7.80541612420156E-26   1.47415143205814E-08   1.15912176974935E-16
      2.80044444444444E-02
      0.00000000000000E+00   0.00000000000000E+00   0.00000000000000E+00   0.00000000000000E+00   0.00000000000000E+00
      0.00000000000000E+00   0.00000000000000E+00  -2.30140618086485E-16   0.00000000000000E+00   0.00000000000000E+00
      0.00000000000000E+00   0.00000000000000E+00  -1.87572830883131E-08   1.21558230541955E-25  -1.87572830883131E-08
      1.11215162612908E-16   2.24035555555556E-02   2.24035555555556E-02   0.00000000000000E+00   0.00000000000000E+00
      1.87572775158947E-08   1.97532348331455E-25   1.87572775158947E-08   1.20130413975357E-16
      5.40216296296296E-02
      0.00000000000000E+00   0.00000000000000E+00   0.00000000000000E+00   0.00000000000000E+00   0.00000000000000E+00
      0.00000000000000E+00   0.00000000000000E+00  -2.37979342203670E-16   0.00000000000000E+00   0.00000000000000E+00
      0.00000000000000E+00   0.00000000000000E+00  -2.01467138152565E-08   5.49415171781244E-28  -2.01467138152565E-08
      1.11208091271316E-16   4.32173037037037E-02   4.32173037037037E-02   0.00000000000000E+00   0.00000000000000E+00
      2.01467138152835E-08   2.47628698030724E-27   2.01467138152835E-08   1.27972217400198E-16
      9.56491259259259E-02
      0.00000000000000E+00   0.00000000000000E+00   0.00000000000000E+00   0.00000000000000E+00   0.00000000000000E+00
      0.00000000000000E+00   0.00000000000000E+00  -2.50436560433010E-16   0.00000000000000E+00   0.00000000000000E+00
      0.00000000000000E+00   0.00000000000000E+00  -2.10082022968988E-08  -1.37006941250117E-25  -2.10082022968988E-08
      1.11196940072720E-16   7.65193007407407E-02   7.65193007407407E-02   0.00000000000000E+00   0.00000000000000E+00
      2.10082022658517E-08  -9.01314892218244E-26   2.10082022658517E-08   1.40437472698786E-16
      1.45649125925926E-01
      0.00000000000000E+00   0.00000000000000E+00   0.00000000000000E+00   0.00000000000000E+00   0.00000000000000E+00
      0.00000000000000E+00   0.00000000000000E+00  -2.65276320248419E-16   0.00000000000000E+00   0.00000000000000E+00
      0.00000000000000E+00   0.00000000000000E+00  -2.20009058296165E-08  -1.20535615238738E-26  -2.20009058296165E-08
      1.11183775171623E-16   1.16519300740741E-01   1.16519300740741E-01   0.00000000000000E+00   0.00000000000000E+00
      2.20009058296565E-08  -1.36923089769054E-27   2.20009058296565E-08   1.55289017104006E-16
      1.95649125925926E-01
      0.00000000000000E+00   0.00000000000000E+00   0.00000000000000E+00   0.00000000000000E+00   0.00000000000000E+00
      0.00000000000000E+00   0.00000000000000E+00  -2.79996817723538E-16   0.00000000000000E+00   0.00000000000000E+00
      0.00000000000000E+00   0.00000000000000E+00  -2.29668275723186E-08  -1.67094107513980E-25  -2.29668275723186E-08
      1.11170827079868E-16   1.56519300740741E-01   1.56519300740741E-01   0.00000000000000E+00   0.00000000000000E+00
      2.29668275722636E-08  -7.03773791744537E-27   2.29668275722636E-08   1.70022072340786E-16
      2.45649125925926E-01
      0.00000000000000E+00   0.00000000000000E+00   0.00000000000000E+00   0.00000000000000E+00   0.00000000000000E+00
      0.00000000000000E+00   0.00000000000000E+00  -2.94610362047204E-16   0.00000000000000E+00   0.00000000000000E+00
      0.00000000000000E+00   0.00000000000000E+00  -2.39110649241707E-08  -2.54478917591733E-24  -2.39110649241707E-08
      1.11158069868185E-16   1.96519300740741E-01   1.96519300740741E-01   0.00000000000000E+00   0.00000000000000E+00
      2.39110649117815E-08   3.13725707200396E-26   2.39110649117815E-08   1.84648343987290E-16
      2.95649125925926E-01
      0.00000000000000E+00   0.00000000000000E+00   0.00000000000000E+00   0.00000000000000E+00   0.00000000000000E+00
      0.00000000000000E+00   0.00000000000000E+00  -3.09126774808452E-16   0.00000000000000E+00   0.00000000000000E+00
      0.00000000000000E+00   0.00000000000000E+00  -2.48374629183315E-08  -1.29172018913105E-25  -2.48374629183315E-08
      1.11145483408324E-16   2.36519300740741E-01   2.36519300740741E-01   0.00000000000000E+00   0.00000000000000E+00
      2.48374628778028E-08  -2.45788424046122E-24   2.48374628778028E-08   1.99177442914708E-16
      3.45649125925926E-01
      0.00000000000000E+00   0.00000000000000E+00   0.00000000000000E+00   0.00000000000000E+00   0.00000000000000E+00
      0.00000000000000E+00   0.00000000000000E+00  -3.23554088205993E-16   0.00000000000000E+00   0.00000000000000E+00
      0.00000000000000E+00   0.00000000000000E+00  -2.57490112356441E-08   1.48284482667078E-25  -2.57490112356441E-08
      1.11133051508042E-16   2.76519300740741E-01   2.76519300740741E-01   0.00000000000000E+00   0.00000000000000E+00
      2.57490011787528E-08  -1.83375301587555E-25   2.57490011787528E-08   2.13617330429774E-16
      3.95649125925926E-01
      0.00000000000000E+00   0.00000000000000E+00   0.00000000000000E+00   0.00000000000000E+00   0.00000000000000E+00
      0.00000000000000E+00   0.00000000000000E+00  -3.37898987844002E-16   0.00000000000000E+00   0.00000000000000E+00
      0.00000000000000E+00   0.00000000000000E+00  -2.66480876909299E-08  -1.46017011184594E-25  -2.66480876909299E-08
      1.11120760838565E-16   3.16519300740741E-01   3.16519300740741E-01   0.00000000000000E+00   0.00000000000000E+00
      2.66480736266892E-08  -1.74828307471654E-24   2.66480736266892E-08   2.27974658923337E-16
      4.45649125925926E-01
      0.00000000000000E+00   0.00000000000000E+00   0.00000000000000E+00   0.00000000000000E+00   0.00000000000000E+00
      0.00000000000000E+00   0.00000000000000E+00  -3.52167115473821E-16   0.00000000000000E+00   0.00000000000000E+00
      0.00000000000000E+00   0.00000000000000E+00  -2.75366182473027E-08  -4.74604773047535E-25  -2.75366182473027E-08
      1.11108600238983E-16   3.56519300740741E-01   3.56519300740741E-01   0.00000000000000E+00   0.00000000000000E+00
      2.75363710362465E-08  -1.75234599210325E-22   2.75363710362463E-08   2.42255076624250E-16
      4.95649125925926E-01
      0.00000000000000E+00   0.00000000000000E+00   0.00000000000000E+00   0.00000000000000E+00   0.00000000000000E+00
      0.00000000000000E+00   0.00000000000000E+00  -3.66363286726968E-16   0.00000000000000E+00   0.00000000000000E+00
      0.00000000000000E+00   0.00000000000000E+00  -2.84161865090779E-08  -9.75204389322291E-27  -2.84161865090779E-08
      1.11096560228132E-16   3.96519300740741E-01   3.96519300740741E-01   0.00000000000000E+00   0.00000000000000E+00
      2.84161860778180E-08  -4.01153924863692E-25   2.84161860778180E-08   2.56463422451181E-16
      5.45649125925926E-01
      0.00000000000000E+00   0.00000000000000E+00   0.00000000000000E+00   0.00000000000000E+00   0.00000000000000E+00
      0.00000000000000E+00   0.00000000000000E+00  -3.80491651060914E-16   0.00000000000000E+00   0.00000000000000E+00
      0.00000000000000E+00   0.00000000000000E+00  -2.92881121626665E-08  -4.72053889346073E-25  -2.92881121626665E-08
      1.11084632657897E-16   4.36519300740741E-01   4.36519300740741E-01   0.00000000000000E+00   0.00000000000000E+00
      2.92881112818448E-08   7.44968484604249E-22   2.92881112818455E-08   2.70603851358300E-16
      5.95649125925926E-01
      0.00000000000000E+00   0.00000000000000E+00   0.00000000000000E+00   0.00000000000000E+00   0.00000000000000E+00
      0.00000000000000E+00   0.00000000000000E+00  -3.94555810759608E-16   0.00000000000000E+00   0.00000000000000E+00
      0.00000000000000E+00   0.00000000000000E+00  -3.01535064354512E-08  -2.61483309768777E-24  -3.01535064354512E-08
      1.11072810461693E-16   4.76519300740741E-01   4.76519300740741E-01   0.00000000000000E+00   0.00000000000000E+00
      3.01535022696927E-08   2.46015848374995E-20   3.01535022697173E-08   2.84679969612556E-16
      6.45649125925926E-01
      0.00000000000000E+00   0.00000000000000E+00   0.00000000000000E+00   0.00000000000000E+00   0.00000000000000E+00
      0.00000000000000E+00   0.00000000000000E+00  -4.08558916695379E-16   0.00000000000000E+00   0.00000000000000E+00
      0.00000000000000E+00   0.00000000000000E+00  -3.10133153045882E-08  -2.67369074661398E-24  -3.10133153045882E-08
      1.11061087444776E-16   5.16519300740741E-01   5.16519300740741E-01   0.00000000000000E+00   0.00000000000000E+00
      3.10133147827984E-08  -9.06425081068930E-24   3.10133147827984E-08   2.98694932018976E-16
      6.95649125925926E-01
      0.00000000000000E+00   0.00000000000000E+00   0.00000000000000E+00   0.00000000000000E+00   0.00000000000000E+00
      0.00000000000000E+00   0.00000000000000E+00  -4.22503736612209E-16   0.00000000000000E+00   0.00000000000000E+00
      0.00000000000000E+00   0.00000000000000E+00  -3.18683505260486E-08  -1.01343359850104E-24  -3.18683505260486E-08
      1.11049458133708E-16   5.56519300740741E-01   5.56519300740741E-01   0.00000000000000E+00   0.00000000000000E+00
      3.18683504931644E-08   2.59643545114848E-21   3.18683504931670E-08   3.12651512685631E-16
      7.45649125925926E-01
      0.00000000000000E+00   0.00000000000000E+00   0.00000000000000E+00   0.00000000000000E+00   0.00000000000000E+00
      0.00000000000000E+00   0.00000000000000E+00  -4.36392712690968E-16   0.00000000000000E+00   0.00000000000000E+00
      0.00000000000000E+00   0.00000000000000E+00  -3.27193136360219E-08  -2.21157440716374E-22  -3.27193136360221E-08
      1.11037917669494E-16   5.96519300740741E-01   5.96519300740741E-01   0.00000000000000E+00   0.00000000000000E+00
      3.27193136302090E-08   2.00710579414496E-19   3.27193136304097E-08   3.26552159819474E-16
      7.95649125925926E-01
      0.00000000000000E+00   0.00000000000000E+00   0.00000000000000E+00   0.00000000000000E+00   0.00000000000000E+00
      0.00000000000000E+00   0.00000000000000E+00  -4.50228007132911E-16   0.00000000000000E+00   0.00000000000000E+00
      0.00000000000000E+00   0.00000000000000E+00  -3.35668128816545E-08  -1.33352409258690E-24  -3.35668128816545E-08
      1.11026461782641E-16   6.36519300740741E-01   6.36519300740741E-01   0.00000000000000E+00   0.00000000000000E+00
      3.35668128816768E-08   4.37366695189856E-22   3.35668128816772E-08   3.40399040892838E-16
      8.45649125925926E-01
      0.00000000000000E+00   0.00000000000000E+00   0.00000000000000E+00   0.00000000000000E+00   0.00000000000000E+00
      0.00000000000000E+00   0.00000000000000E+00  -4.64011539952089E-16   0.00000000000000E+00   0.00000000000000E+00
      0.00000000000000E+00   0.00000000000000E+00  -3.44113810463909E-08  -7.73838179185690E-24  -3.44113810463909E-08
      1.11015086627328E-16   6.76519300740741E-01   6.76519300740741E-01   0.00000000000000E+00   0.00000000000000E+00
      3.44113810394953E-08   1.20480576454435E-21   3.44113810394965E-08   3.54194080339611E-16
      8.95649125925926E-01
      0.00000000000000E+00   0.00000000000000E+00   0.00000000000000E+00   0.00000000000000E+00   0.00000000000000E+00
      0.00000000000000E+00   0.00000000000000E+00  -4.77745020209525E-16   0.00000000000000E+00   0.00000000000000E+00
      0.00000000000000E+00   0.00000000000000E+00  -3.52534907019427E-08  -1.67554918087660E-22  -3.52534907019428E-08
      1.11003788629491E-16   7.16519300740741E-01   7.16519300740741E-01   0.00000000000000E+00   0.00000000000000E+00
      3.52534895239582E-08   9.63340714868648E-19   3.52534895249215E-08   3.67938989209196E-16
      9.45649125925926E-01
      0.00000000000000E+00   0.00000000000000E+00   0.00000000000000E+00   0.00000000000000E+00   0.00000000000000E+00
      0.00000000000000E+00   0.00000000000000E+00  -4.91429971025546E-16   0.00000000000000E+00   0.00000000000000E+00
      0.00000000000000E+00   0.00000000000000E+00  -3.60935588686244E-08  -1.16338114778667E-23  -3.60935588686245E-08
      1.10992564588693E-16   7.56519300740741E-01   7.56519300740741E-01   0.00000000000000E+00   0.00000000000000E+00
      3.60935588685678E-08   1.35009914449136E-19   3.60935588687028E-08   3.81635293230029E-16
      9.95649125925926E-01
      0.00000000000000E+00   0.00000000000000E+00   0.00000000000000E+00   0.00000000000000E+00   0.00000000000000E+00
      0.00000000000000E+00   0.00000000000000E+00  -5.05067750849221E-16   0.00000000000000E+00   0.00000000000000E+00
      0.00000000000000E+00   0.00000000000000E+00  -3.69319534510748E-08  -5.01465269017471E-22  -3.69319534510753E-08
      1.10981411672582E-16   7.96519300740741E-01   7.96519300740741E-01   0.00000000000000E+00   0.00000000000000E+00
      3.69319534472224E-08   2.97197406014379E-18   3.69319534501944E-08   3.95284354549158E-16
      1.00000000000000E+00
      0.00000000000000E+00   0.00000000000000E+00   0.00000000000000E+00   0.00000000000000E+00   0.00000000000000E+00
      0.00000000000000E+00   0.00000000000000E+00  -5.06252286010853E-16   0.00000000000000E+00   0.00000000000000E+00
      0.00000000000000E+00   0.00000000000000E+00  -3.70048401549722E-08  -1.66232103814097E-22  -3.70048401549723E-08
      1.10980444456476E-16   8.00000000000000E-01   8.00000000000000E-01   0.00000000000000E+00   0.00000000000000E+00
      3.70048401525176E-08   7.93183285149843E-19   3.70048401533107E-08   3.96469868195026E-16
}
