DF-ISE text

Info {
  version   = 1.0
  type      = xyplot
  datasets  = [
    "time"
    "gate OuterVoltage" "gate InnerVoltage" "gate QuasiFermiPotential" "gate DisplacementCurrent" "gate eCurrent"
    "gate hCurrent" "gate TotalCurrent" "gate Charge" "source OuterVoltage" "source InnerVoltage"
    "source QuasiFermiPotential" "source DisplacementCurrent" "source eCurrent" "source hCurrent" "source TotalCurrent"
    "source Charge" "drain OuterVoltage" "drain InnerVoltage" "drain QuasiFermiPotential" "drain DisplacementCurrent"
    "drain eCurrent" "drain hCurrent" "drain TotalCurrent" "drain Charge" ]
  functions = [
    Time
    OuterVoltage InnerVoltage QuasiFermiPotential DisplacementCurrent eCurrent
    hCurrent TotalCurrent Charge OuterVoltage InnerVoltage
    QuasiFermiPotential DisplacementCurrent eCurrent hCurrent TotalCurrent
    Charge OuterVoltage InnerVoltage QuasiFermiPotential DisplacementCurrent
    eCurrent hCurrent TotalCurrent Charge ]
}

Data {
      0.00000000000000E+00
      0.00000000000000E+00   0.00000000000000E+00   0.00000000000000E+00   0.00000000000000E+00   0.00000000000000E+00
      0.00000000000000E+00   0.00000000000000E+00  -2.21652345404271E-16   0.00000000000000E+00   0.00000000000000E+00
      0.00000000000000E+00   0.00000000000000E+00  -4.87464526491851E-21  -1.68114360576281E-31  -4.87464526508662E-21
      1.11222881166646E-16   0.00000000000000E+00   0.00000000000000E+00   0.00000000000000E+00   0.00000000000000E+00
     -5.96251352908568E-22  -1.46530922072826E-31  -5.96251353055099E-22   1.11642192348622E-16
      0.00000000000000E+00
      0.00000000000000E+00   0.00000000000000E+00   0.00000000000000E+00   0.00000000000000E+00   0.00000000000000E+00
      0.00000000000000E+00   0.00000000000000E+00  -2.21652286732394E-16   0.00000000000000E+00   0.00000000000000E+00
      0.00000000000000E+00   0.00000000000000E+00   8.52511093976280E-17   2.00334712824166E-30   8.52511093976300E-17
      1.11222853601987E-16   0.00000000000000E+00   0.00000000000000E+00   0.00000000000000E+00   0.00000000000000E+00
      5.70086978634714E-17  -6.46095776525739E-29   5.70086978634067E-17   1.11642161240855E-16
      0.00000000000000E+00
      0.00000000000000E+00   0.00000000000000E+00   0.00000000000000E+00   0.00000000000000E+00   0.00000000000000E+00
      0.00000000000000E+00   0.00000000000000E+00  -2.21652286732325E-16   0.00000000000000E+00   0.00000000000000E+00
      0.00000000000000E+00   0.00000000000000E+00  -2.88784832731317E-20  -1.44378895904835E-33  -2.88784832731331E-20
      1.11222853601954E-16   0.00000000000000E+00   0.00000000000000E+00   0.00000000000000E+00   0.00000000000000E+00
     -3.23898770310680E-20  -2.05716206311956E-33  -3.23898770310701E-20   1.11642161240812E-16
      1.00000000000000E-03
      0.00000000000000E+00   0.00000000000000E+00   0.00000000000000E+00   0.00000000000000E+00   0.00000000000000E+00
      0.00000000000000E+00   0.00000000000000E+00  -2.21948763088045E-16   0.00000000000000E+00   0.00000000000000E+00
      0.00000000000000E+00   0.00000000000000E+00  -1.72681931508515E-09  -5.97337476613477E-27  -1.72681931508515E-09
      1.11222585613527E-16   7.80000000000000E-04   7.80000000000000E-04   0.00000000000000E+00   0.00000000000000E+00
      1.72715297763905E-09  -2.19539469047128E-26   1.72715297763905E-09   1.11938550594038E-16
      2.86666666666667E-03
      0.00000000000000E+00   0.00000000000000E+00   0.00000000000000E+00   0.00000000000000E+00   0.00000000000000E+00
      0.00000000000000E+00   0.00000000000000E+00  -2.22501996626482E-16   0.00000000000000E+00   0.00000000000000E+00
      0.00000000000000E+00   0.00000000000000E+00  -4.53472138268877E-09  -7.41646694451986E-27  -4.53472138268877E-09
      1.11222085039383E-16   2.23600000000000E-03   2.23600000000000E-03   0.00000000000000E+00   0.00000000000000E+00
      4.53472669109397E-09  -3.75115990715462E-25   4.53472669109397E-09   1.12491640962752E-16
      6.60000000000000E-03
      0.00000000000000E+00   0.00000000000000E+00   0.00000000000000E+00   0.00000000000000E+00   0.00000000000000E+00
      0.00000000000000E+00   0.00000000000000E+00  -2.23607731389486E-16   0.00000000000000E+00   0.00000000000000E+00
      0.00000000000000E+00   0.00000000000000E+00  -8.74769664436561E-09  -8.66200921232490E-28  -8.74769664436561E-09
      1.11221083033205E-16   5.14800000000000E-03   5.14800000000000E-03   0.00000000000000E+00   0.00000000000000E+00
      8.74776078062130E-09  -8.22468767383581E-27   8.74776078062130E-09   1.13597161592841E-16
      1.40666666666667E-02
      0.00000000000000E+00   0.00000000000000E+00   0.00000000000000E+00   0.00000000000000E+00   0.00000000000000E+00
      0.00000000000000E+00   0.00000000000000E+00  -2.25816319277724E-16   0.00000000000000E+00   0.00000000000000E+00
      0.00000000000000E+00   0.00000000000000E+00  -1.33687935512968E-08   1.10668016391369E-26  -1.33687935512968E-08
      1.11219078905986E-16   1.09720000000000E-02   1.09720000000000E-02   0.00000000000000E+00   0.00000000000000E+00
      1.33687933087356E-08   2.17935669324154E-26   1.33687933087356E-08   1.15805587036476E-16
      2.80044444444444E-02
      0.00000000000000E+00   0.00000000000000E+00   0.00000000000000E+00   0.00000000000000E+00   0.00000000000000E+00
      0.00000000000000E+00   0.00000000000000E+00  -2.29929053409559E-16   0.00000000000000E+00   0.00000000000000E+00
      0.00000000000000E+00   0.00000000000000E+00  -1.59509487284015E-08   5.57532603101533E-26  -1.59509487284015E-08
      1.11215350133228E-16   2.18434666666667E-02   2.18434666666667E-02   0.00000000000000E+00   0.00000000000000E+00
      1.59509383288717E-08   9.09071945878717E-26   1.59509383288717E-08   1.19918826504537E-16
      5.40216296296296E-02
      0.00000000000000E+00   0.00000000000000E+00   0.00000000000000E+00   0.00000000000000E+00   0.00000000000000E+00
      0.00000000000000E+00   0.00000000000000E+00  -2.37573415218618E-16   0.00000000000000E+00   0.00000000000000E+00
      0.00000000000000E+00   0.00000000000000E+00  -1.66171118072324E-08  -7.58289177579897E-29  -1.66171118072324E-08
      1.11208452064087E-16   4.21368711111111E-02   4.21368711111111E-02   0.00000000000000E+00   0.00000000000000E+00
      1.66171118072017E-08   3.46658024326283E-28   1.66171118072017E-08   1.27566163677173E-16
      9.21801679012346E-02
      0.00000000000000E+00   0.00000000000000E+00   0.00000000000000E+00   0.00000000000000E+00   0.00000000000000E+00
      0.00000000000000E+00   0.00000000000000E+00  -2.48714552669787E-16   0.00000000000000E+00   0.00000000000000E+00
      0.00000000000000E+00   0.00000000000000E+00  -1.72279375953071E-08  -2.63928694693830E-26  -1.72279375953071E-08
      1.11198471550579E-16   7.19005309629630E-02   7.19005309629630E-02   0.00000000000000E+00   0.00000000000000E+00
      1.72279374786428E-08  -1.80968895043557E-26   1.72279374786428E-08   1.38714341420743E-16
      1.42180167901235E-01
      0.00000000000000E+00   0.00000000000000E+00   0.00000000000000E+00   0.00000000000000E+00   0.00000000000000E+00
      0.00000000000000E+00   0.00000000000000E+00  -2.63199168344736E-16   0.00000000000000E+00   0.00000000000000E+00
      0.00000000000000E+00   0.00000000000000E+00  -1.80051709025564E-08  -2.52132536950717E-25  -1.80051709025564E-08
      1.11185606504208E-16   1.10900530962963E-01   1.10900530962963E-01   0.00000000000000E+00   0.00000000000000E+00
      1.80051705705509E-08  -9.75183061346326E-26   1.80051705705509E-08   1.53210306839479E-16
      1.67180167901235E-01
      0.00000000000000E+00   0.00000000000000E+00   0.00000000000000E+00   0.00000000000000E+00   0.00000000000000E+00
      0.00000000000000E+00   0.00000000000000E+00  -2.70397455230683E-16   0.00000000000000E+00   0.00000000000000E+00
      0.00000000000000E+00   0.00000000000000E+00  -1.83855757710260E-08  -6.59217061759257E-26  -1.83855757710260E-08
      1.11179254493007E-16   1.30400530962963E-01   1.30400530962963E-01   0.00000000000000E+00   0.00000000000000E+00
      1.83855757709372E-08  -6.28765525134625E-27   1.83855757709372E-08   1.60414647008093E-16
      2.00513501234568E-01
      0.00000000000000E+00   0.00000000000000E+00   0.00000000000000E+00   0.00000000000000E+00   0.00000000000000E+00
      0.00000000000000E+00   0.00000000000000E+00  -2.79953105327609E-16   0.00000000000000E+00   0.00000000000000E+00
      0.00000000000000E+00   0.00000000000000E+00  -1.88854879813501E-08  -3.37976319043267E-29  -1.88854879813501E-08
      1.11170860966359E-16   1.56400530962963E-01   1.56400530962963E-01   0.00000000000000E+00   0.00000000000000E+00
      1.88854879813785E-08   1.18721794028068E-30   1.88854879813785E-08   1.69978520468446E-16
      2.33846834567901E-01
      0.00000000000000E+00   0.00000000000000E+00   0.00000000000000E+00   0.00000000000000E+00   0.00000000000000E+00
      0.00000000000000E+00   0.00000000000000E+00  -2.89463605056426E-16   0.00000000000000E+00   0.00000000000000E+00
      0.00000000000000E+00   0.00000000000000E+00  -1.93780196538737E-08   4.05906360724198E-28  -1.93780196538737E-08
      1.11162547996373E-16   1.82400530962963E-01   1.82400530962963E-01   0.00000000000000E+00   0.00000000000000E+00
      1.93780196538776E-08   3.35352654755754E-25   1.93780196538776E-08   1.79497306768039E-16
      2.67180167901235E-01
      0.00000000000000E+00   0.00000000000000E+00   0.00000000000000E+00   0.00000000000000E+00   0.00000000000000E+00
      0.00000000000000E+00   0.00000000000000E+00  -2.98931741488703E-16   0.00000000000000E+00   0.00000000000000E+00
      0.00000000000000E+00   0.00000000000000E+00  -1.98640518157256E-08  -5.08127677619469E-26  -1.98640518157256E-08
      1.11154309859853E-16   2.08400530962963E-01   2.08400530962963E-01   0.00000000000000E+00   0.00000000000000E+00
      1.98640518154175E-08   2.98348804735499E-29   1.98640518154175E-08   1.88973728778905E-16
      3.02735723456790E-01
      0.00000000000000E+00   0.00000000000000E+00   0.00000000000000E+00   0.00000000000000E+00   0.00000000000000E+00
      0.00000000000000E+00   0.00000000000000E+00  -3.08987132114955E-16   0.00000000000000E+00   0.00000000000000E+00
      0.00000000000000E+00   0.00000000000000E+00  -2.03761590490817E-08  -1.11687423052823E-27  -2.03761590490817E-08
      1.11145599439736E-16   2.36133864296296E-01   2.36133864296296E-01   0.00000000000000E+00   0.00000000000000E+00
      2.03761590490923E-08   4.87376144014184E-27   2.03761590490923E-08   1.99037920772581E-16
      3.40661649382716E-01
      0.00000000000000E+00   0.00000000000000E+00   0.00000000000000E+00   0.00000000000000E+00   0.00000000000000E+00
      0.00000000000000E+00   0.00000000000000E+00  -3.19665724748293E-16   0.00000000000000E+00   0.00000000000000E+00
      0.00000000000000E+00   0.00000000000000E+00  -2.09160517454672E-08  -1.27130307139075E-25  -2.09160517454672E-08
      1.11136390111392E-16   2.65716086518519E-01   2.65716086518519E-01   0.00000000000000E+00   0.00000000000000E+00
      2.09160517454847E-08  -2.21720811151658E-21   2.09160517454825E-08   2.09725839592173E-16
      3.78587575308642E-01
      0.00000000000000E+00   0.00000000000000E+00   0.00000000000000E+00   0.00000000000000E+00   0.00000000000000E+00
      0.00000000000000E+00   0.00000000000000E+00  -3.30298339183428E-16   0.00000000000000E+00   0.00000000000000E+00
      0.00000000000000E+00   0.00000000000000E+00  -2.14501581637893E-08  -1.88230758850627E-24  -2.14501581637893E-08
      1.11127259823492E-16   2.95298308740741E-01   2.95298308740741E-01   0.00000000000000E+00   0.00000000000000E+00
      2.14501452942217E-08  -7.54277513855991E-22   2.14501452942209E-08   2.20367700074259E-16
      4.28587575308642E-01
      0.00000000000000E+00   0.00000000000000E+00   0.00000000000000E+00   0.00000000000000E+00   0.00000000000000E+00
      0.00000000000000E+00   0.00000000000000E+00  -3.44249758327237E-16   0.00000000000000E+00   0.00000000000000E+00
      0.00000000000000E+00   0.00000000000000E+00  -2.21464598596828E-08   8.85506348827380E-22  -2.21464598596819E-08
      1.11115335524465E-16   3.34298308740741E-01   3.34298308740741E-01   0.00000000000000E+00   0.00000000000000E+00
      2.21464753103684E-08  -7.59173568021697E-21   2.21464753103608E-08   2.34331176189677E-16
      4.78587575308642E-01
      0.00000000000000E+00   0.00000000000000E+00   0.00000000000000E+00   0.00000000000000E+00   0.00000000000000E+00
      0.00000000000000E+00   0.00000000000000E+00  -3.58130319866662E-16   0.00000000000000E+00   0.00000000000000E+00
      0.00000000000000E+00   0.00000000000000E+00  -2.28354373343086E-08  -3.97830642067342E-23  -2.28354373343086E-08
      1.11103530693938E-16   3.73298308740741E-01   3.73298308740741E-01   0.00000000000000E+00   0.00000000000000E+00
      2.28337756416048E-08  -1.12118480446301E-20   2.28337756415936E-08   2.48223682135114E-16
      5.28587575308642E-01
      0.00000000000000E+00   0.00000000000000E+00   0.00000000000000E+00   0.00000000000000E+00   0.00000000000000E+00
      0.00000000000000E+00   0.00000000000000E+00  -3.71944206143080E-16   0.00000000000000E+00   0.00000000000000E+00
      0.00000000000000E+00   0.00000000000000E+00  -2.35177509068038E-08  -2.88348961432344E-21  -2.35177509068067E-08
      1.11091837102986E-16   4.12298308740741E-01   4.12298308740741E-01   0.00000000000000E+00   0.00000000000000E+00
      2.35068947404791E-08   3.21259743505435E-20   2.35068947405112E-08   2.62049406568708E-16
      5.78587575308642E-01
      0.00000000000000E+00   0.00000000000000E+00   0.00000000000000E+00   0.00000000000000E+00   0.00000000000000E+00
      0.00000000000000E+00   0.00000000000000E+00  -3.85695042334081E-16   0.00000000000000E+00   0.00000000000000E+00
      0.00000000000000E+00   0.00000000000000E+00  -2.41945589003482E-08  -9.84372335567351E-26  -2.41945589003482E-08
      1.11080247641716E-16   4.51298308740741E-01   4.51298308740741E-01   0.00000000000000E+00   0.00000000000000E+00
      2.41945588995939E-08   1.91622176016414E-22   2.41945588995940E-08   2.75811977006382E-16
      6.28587575308642E-01
      0.00000000000000E+00   0.00000000000000E+00   0.00000000000000E+00   0.00000000000000E+00   0.00000000000000E+00
      0.00000000000000E+00   0.00000000000000E+00  -3.99385998804179E-16   0.00000000000000E+00   0.00000000000000E+00
      0.00000000000000E+00   0.00000000000000E+00  -2.48665221278127E-08  -1.82404851531653E-25  -2.48665221278127E-08
      1.11068756088549E-16   4.90298308740741E-01   4.90298308740741E-01   0.00000000000000E+00   0.00000000000000E+00
      2.48665220856921E-08   4.06617933468767E-23   2.48665220856921E-08   2.89514567373475E-16
      6.78587575308642E-01
      0.00000000000000E+00   0.00000000000000E+00   0.00000000000000E+00   0.00000000000000E+00   0.00000000000000E+00
      0.00000000000000E+00   0.00000000000000E+00  -4.13019862452873E-16   0.00000000000000E+00   0.00000000000000E+00
      0.00000000000000E+00   0.00000000000000E+00  -2.55343460063662E-08  -8.38892013990308E-26  -2.55343460063662E-08
      1.11057356952719E-16   5.29298308740741E-01   5.29298308740741E-01   0.00000000000000E+00   0.00000000000000E+00
      2.55343428813414E-08   8.51741000386427E-23   2.55343428813414E-08   3.03159968536935E-16
      7.28587575308642E-01
      0.00000000000000E+00   0.00000000000000E+00   0.00000000000000E+00   0.00000000000000E+00   0.00000000000000E+00
      0.00000000000000E+00   0.00000000000000E+00  -4.26599091780007E-16   0.00000000000000E+00   0.00000000000000E+00
      0.00000000000000E+00   0.00000000000000E+00  -2.61986057922015E-08  -7.13711849856263E-24  -2.61986057922015E-08
      1.11046045365862E-16   5.68298308740741E-01   5.68298308740741E-01   0.00000000000000E+00   0.00000000000000E+00
      2.61986057923180E-08   1.64489849041718E-20   2.61986057923345E-08   3.16750647145879E-16
      7.78587575308642E-01
      0.00000000000000E+00   0.00000000000000E+00   0.00000000000000E+00   0.00000000000000E+00   0.00000000000000E+00
      0.00000000000000E+00   0.00000000000000E+00  -4.40125866737247E-16   0.00000000000000E+00   0.00000000000000E+00
      0.00000000000000E+00   0.00000000000000E+00  -2.68598014424963E-08  -9.37343032824508E-24  -2.68598014424963E-08
      1.11034817001183E-16   6.07298308740741E-01   6.07298308740741E-01   0.00000000000000E+00   0.00000000000000E+00
      2.68598014425037E-08   9.43121392455420E-21   2.68598014425131E-08   3.30288787899702E-16
      8.28587575308642E-01
      0.00000000000000E+00   0.00000000000000E+00   0.00000000000000E+00   0.00000000000000E+00   0.00000000000000E+00
      0.00000000000000E+00   0.00000000000000E+00  -4.53602124466352E-16   0.00000000000000E+00   0.00000000000000E+00
      0.00000000000000E+00   0.00000000000000E+00  -2.75183678105677E-08  -1.31342729846569E-23  -2.75183678105677E-08
      1.11023668065495E-16   6.46298308740741E-01   6.46298308740741E-01   0.00000000000000E+00   0.00000000000000E+00
      2.75183674749921E-08   9.65413700818506E-20   2.75183674750887E-08   3.43776333393477E-16
      8.78587575308642E-01
      0.00000000000000E+00   0.00000000000000E+00   0.00000000000000E+00   0.00000000000000E+00   0.00000000000000E+00
      0.00000000000000E+00   0.00000000000000E+00  -4.67029592043243E-16   0.00000000000000E+00   0.00000000000000E+00
      0.00000000000000E+00   0.00000000000000E+00  -2.81746911991739E-08   3.64355772207348E-26  -2.81746911991739E-08
      1.11012595008233E-16   6.85298308740741E-01   6.85298308740741E-01   0.00000000000000E+00   0.00000000000000E+00
      2.81746911920251E-08   2.42782813411244E-22   2.81746911920253E-08   3.57215013173337E-16
      9.28587575308642E-01
      0.00000000000000E+00   0.00000000000000E+00   0.00000000000000E+00   0.00000000000000E+00   0.00000000000000E+00
      0.00000000000000E+00   0.00000000000000E+00  -4.80409810779037E-16   0.00000000000000E+00   0.00000000000000E+00
      0.00000000000000E+00   0.00000000000000E+00  -2.88291131018833E-08  -4.38849881673674E-26  -2.88291131018833E-08
      1.11001594627595E-16   7.24298308740741E-01   7.24298308740741E-01   0.00000000000000E+00   0.00000000000000E+00
      2.88291131019087E-08   5.85606248037012E-21   2.88291131019145E-08   3.70606370598317E-16
      9.78587575308642E-01
      0.00000000000000E+00   0.00000000000000E+00   0.00000000000000E+00   0.00000000000000E+00   0.00000000000000E+00
      0.00000000000000E+00   0.00000000000000E+00  -4.93744159193838E-16   0.00000000000000E+00   0.00000000000000E+00
      0.00000000000000E+00   0.00000000000000E+00  -2.94819361455191E-08  -1.66860516459860E-23  -2.94819361455191E-08
      1.10990664040299E-16   7.63298308740741E-01   7.63298308740741E-01   0.00000000000000E+00   0.00000000000000E+00
      2.94819361454104E-08   3.92482656483236E-19   2.94819361458029E-08   3.83951787022944E-16
      1.00000000000000E+00
      0.00000000000000E+00   0.00000000000000E+00   0.00000000000000E+00   0.00000000000000E+00   0.00000000000000E+00
      0.00000000000000E+00   0.00000000000000E+00  -4.99440855691690E-16   0.00000000000000E+00   0.00000000000000E+00
      0.00000000000000E+00   0.00000000000000E+00  -2.97610852505377E-08  -4.75577010877787E-24  -2.97610852505377E-08
      1.10986003728045E-16   7.80000000000000E-01   7.80000000000000E-01   0.00000000000000E+00   0.00000000000000E+00
      2.97610852504687E-08   9.84556934983396E-20   2.97610852505672E-08   3.89653202585223E-16
}
