DF-ISE text

Info {
  version   = 1.0
  type      = xyplot
  datasets  = [
    "time"
    "gate OuterVoltage" "gate InnerVoltage" "gate QuasiFermiPotential" "gate DisplacementCurrent" "gate eCurrent"
    "gate hCurrent" "gate TotalCurrent" "gate Charge" "source OuterVoltage" "source InnerVoltage"
    "source QuasiFermiPotential" "source DisplacementCurrent" "source eCurrent" "source hCurrent" "source TotalCurrent"
    "source Charge" "drain OuterVoltage" "drain InnerVoltage" "drain QuasiFermiPotential" "drain DisplacementCurrent"
    "drain eCurrent" "drain hCurrent" "drain TotalCurrent" "drain Charge" ]
  functions = [
    Time
    OuterVoltage InnerVoltage QuasiFermiPotential DisplacementCurrent eCurrent
    hCurrent TotalCurrent Charge OuterVoltage InnerVoltage
    QuasiFermiPotential DisplacementCurrent eCurrent hCurrent TotalCurrent
    Charge OuterVoltage InnerVoltage QuasiFermiPotential DisplacementCurrent
    eCurrent hCurrent TotalCurrent Charge ]
}

Data {
      0.00000000000000E+00
      0.00000000000000E+00   0.00000000000000E+00   0.00000000000000E+00   0.00000000000000E+00   0.00000000000000E+00
      0.00000000000000E+00   0.00000000000000E+00  -2.21652345404271E-16   0.00000000000000E+00   0.00000000000000E+00
      0.00000000000000E+00   0.00000000000000E+00  -4.82237115395069E-21  -1.67148775516359E-31  -4.82237115411784E-21
      1.11222881166646E-16   0.00000000000000E+00   0.00000000000000E+00   0.00000000000000E+00   0.00000000000000E+00
     -1.12438026355437E-21  -1.45774109846756E-31  -1.12438026370015E-21   1.11642192348622E-16
      0.00000000000000E+00
      0.00000000000000E+00   0.00000000000000E+00   0.00000000000000E+00   0.00000000000000E+00   0.00000000000000E+00
      0.00000000000000E+00   0.00000000000000E+00  -2.21652286732394E-16   0.00000000000000E+00   0.00000000000000E+00
      0.00000000000000E+00   0.00000000000000E+00   8.52548865522686E-17   2.00368578558522E-30   8.52548865522706E-17
      1.11222853601987E-16   0.00000000000000E+00   0.00000000000000E+00   0.00000000000000E+00   0.00000000000000E+00
      5.70093000599468E-17  -6.46090804091388E-29   5.70093000598822E-17   1.11642161240855E-16
      0.00000000000000E+00
      0.00000000000000E+00   0.00000000000000E+00   0.00000000000000E+00   0.00000000000000E+00   0.00000000000000E+00
      0.00000000000000E+00   0.00000000000000E+00  -2.21652286732325E-16   0.00000000000000E+00   0.00000000000000E+00
      0.00000000000000E+00   0.00000000000000E+00  -5.35107673941793E-20  -1.99193127302064E-33  -5.35107673941813E-20
      1.11222853601954E-16   0.00000000000000E+00   0.00000000000000E+00   0.00000000000000E+00   0.00000000000000E+00
     -3.75368302900511E-20  -1.99185879045618E-33  -3.75368302900531E-20   1.11642161240812E-16
      1.00000000000000E-03
      0.00000000000000E+00   0.00000000000000E+00   0.00000000000000E+00   0.00000000000000E+00   0.00000000000000E+00
      0.00000000000000E+00   0.00000000000000E+00  -2.21937361460166E-16   0.00000000000000E+00   0.00000000000000E+00
      0.00000000000000E+00   0.00000000000000E+00  -1.66174996352058E-09  -4.30929937037947E-27  -1.66174996352058E-09
      1.11222595919484E-16   7.50000000000000E-04   7.50000000000000E-04   0.00000000000000E+00   0.00000000000000E+00
      1.66210081543689E-09  -1.08355590060196E-26   1.66210081543689E-09   1.11927152181849E-16
      2.86666666666667E-03
      0.00000000000000E+00   0.00000000000000E+00   0.00000000000000E+00   0.00000000000000E+00   0.00000000000000E+00
      0.00000000000000E+00   0.00000000000000E+00  -2.22469326198917E-16   0.00000000000000E+00   0.00000000000000E+00
      0.00000000000000E+00   0.00000000000000E+00  -4.41178731623328E-09  -7.36587146278820E-27  -4.41178731623328E-09
      1.11222114663820E-16   2.15000000000000E-03   2.15000000000000E-03   0.00000000000000E+00   0.00000000000000E+00
      4.41179415457756E-09  -1.67325371903263E-26   4.41179415457756E-09   1.12458978242878E-16
      6.60000000000000E-03
      0.00000000000000E+00   0.00000000000000E+00   0.00000000000000E+00   0.00000000000000E+00   0.00000000000000E+00
      0.00000000000000E+00   0.00000000000000E+00  -2.23532578471215E-16   0.00000000000000E+00   0.00000000000000E+00
      0.00000000000000E+00   0.00000000000000E+00  -8.77036273265144E-09  -1.50380988829419E-26  -8.77036273265144E-09
      1.11221151623305E-16   4.95000000000000E-03   4.95000000000000E-03   0.00000000000000E+00   0.00000000000000E+00
      8.77045126989047E-09  -3.63457143470555E-26   8.77045126989047E-09   1.13522019554824E-16
      1.40666666666667E-02
      0.00000000000000E+00   0.00000000000000E+00   0.00000000000000E+00   0.00000000000000E+00   0.00000000000000E+00
      0.00000000000000E+00   0.00000000000000E+00  -2.25656417680085E-16   0.00000000000000E+00   0.00000000000000E+00
      0.00000000000000E+00   0.00000000000000E+00  -1.42669910835362E-08  -2.59849945316339E-26  -1.42669910835362E-08
      1.11219225860557E-16   1.05500000000000E-02   1.05500000000000E-02   0.00000000000000E+00   0.00000000000000E+00
      1.42669910438799E-08  -5.21348770313203E-26   1.42669910438799E-08   1.15645681314476E-16
      2.80044444444444E-02
      0.00000000000000E+00   0.00000000000000E+00   0.00000000000000E+00   0.00000000000000E+00   0.00000000000000E+00
      0.00000000000000E+00   0.00000000000000E+00  -2.29611696063686E-16   0.00000000000000E+00   0.00000000000000E+00
      0.00000000000000E+00   0.00000000000000E+00  -1.84972494622004E-08  -2.93700836806272E-26  -1.84972494622004E-08
      1.11215641334367E-16   2.10033333333333E-02   2.10033333333333E-02   0.00000000000000E+00   0.00000000000000E+00
      1.84972457926274E-08  -4.99458950833794E-26   1.84972457926274E-08   1.19601373288659E-16
      5.40216296296296E-02
      0.00000000000000E+00   0.00000000000000E+00   0.00000000000000E+00   0.00000000000000E+00   0.00000000000000E+00
      0.00000000000000E+00   0.00000000000000E+00  -2.36964494621217E-16   0.00000000000000E+00   0.00000000000000E+00
      0.00000000000000E+00   0.00000000000000E+00  -2.00665270536642E-08   1.31095828774295E-26  -2.00665270536642E-08
      1.11209004254429E-16   4.05162222222222E-02   4.05162222222222E-02   0.00000000000000E+00   0.00000000000000E+00
      2.00665270194082E-08   1.52810967760204E-26   2.00665270194082E-08   1.26956855041449E-16
      9.91180839506173E-02
      0.00000000000000E+00   0.00000000000000E+00   0.00000000000000E+00   0.00000000000000E+00   0.00000000000000E+00
      0.00000000000000E+00   0.00000000000000E+00  -2.49623798551876E-16   0.00000000000000E+00   0.00000000000000E+00
      0.00000000000000E+00   0.00000000000000E+00  -2.09531847493290E-08  -4.66249784549351E-33  -2.09531847493290E-08
      1.11197664673259E-16   7.43385629629630E-02   7.43385629629630E-02   0.00000000000000E+00   0.00000000000000E+00
      2.09531847492970E-08  -1.66322572248840E-31   2.09531847492970E-08   1.39624115462208E-16
      1.49118083950617E-01
      0.00000000000000E+00   0.00000000000000E+00   0.00000000000000E+00   0.00000000000000E+00   0.00000000000000E+00
      0.00000000000000E+00   0.00000000000000E+00  -2.63546224354311E-16   0.00000000000000E+00   0.00000000000000E+00
      0.00000000000000E+00   0.00000000000000E+00  -2.18862391782447E-08  -1.99537605960683E-25  -2.18862391782447E-08
      1.11185303931145E-16   1.11838562962963E-01   1.11838562962963E-01   0.00000000000000E+00   0.00000000000000E+00
      2.18862388258763E-08  -7.54595291380155E-26   2.18862388258763E-08   1.53557483623266E-16
      1.99118083950617E-01
      0.00000000000000E+00   0.00000000000000E+00   0.00000000000000E+00   0.00000000000000E+00   0.00000000000000E+00
      0.00000000000000E+00   0.00000000000000E+00  -2.77362412085515E-16   0.00000000000000E+00   0.00000000000000E+00
      0.00000000000000E+00   0.00000000000000E+00  -2.27951519140215E-08  -3.32533278198121E-25  -2.27951519140215E-08
      1.11173136783688E-16   1.49338562962963E-01   1.49338562962963E-01   0.00000000000000E+00   0.00000000000000E+00
      2.27951519140323E-08  -1.28654998914192E-26   2.27951519140323E-08   1.67385389844795E-16
      2.49118083950617E-01
      0.00000000000000E+00   0.00000000000000E+00   0.00000000000000E+00   0.00000000000000E+00   0.00000000000000E+00
      0.00000000000000E+00   0.00000000000000E+00  -2.91082862947468E-16   0.00000000000000E+00   0.00000000000000E+00
      0.00000000000000E+00   0.00000000000000E+00  -2.36843077883541E-08  -6.21955337166866E-30  -2.36843077883541E-08
      1.11161140998600E-16   1.86838562962963E-01   1.86838562962963E-01   0.00000000000000E+00   0.00000000000000E+00
      2.36843077883701E-08  -4.29756616832845E-31   2.36843077883701E-08   1.81117763847226E-16
      2.99118083950617E-01
      0.00000000000000E+00   0.00000000000000E+00   0.00000000000000E+00   0.00000000000000E+00   0.00000000000000E+00
      0.00000000000000E+00   0.00000000000000E+00  -3.04716034758951E-16   0.00000000000000E+00   0.00000000000000E+00
      0.00000000000000E+00   0.00000000000000E+00  -2.45570541010655E-08  -2.16822320731505E-28  -2.45570541010655E-08
      1.11149299168376E-16   2.24338562962963E-01   2.24338562962963E-01   0.00000000000000E+00   0.00000000000000E+00
      2.45570541010409E-08  -9.94183314026181E-29   2.45570541010409E-08   1.94762849652595E-16
      3.49118083950617E-01
      0.00000000000000E+00   0.00000000000000E+00   0.00000000000000E+00   0.00000000000000E+00   0.00000000000000E+00
      0.00000000000000E+00   0.00000000000000E+00  -3.18268899881856E-16   0.00000000000000E+00   0.00000000000000E+00
      0.00000000000000E+00   0.00000000000000E+00  -2.54160196730771E-08  -7.82994891496487E-29  -2.54160196730771E-08
      1.11137597186411E-16   2.61838562962963E-01   2.61838562962963E-01   0.00000000000000E+00   0.00000000000000E+00
      2.54160196730619E-08   3.28946504881191E-30   2.54160196730619E-08   2.08327542083029E-16
      3.99118083950617E-01
      0.00000000000000E+00   0.00000000000000E+00   0.00000000000000E+00   0.00000000000000E+00   0.00000000000000E+00
      0.00000000000000E+00   0.00000000000000E+00  -3.31747302713589E-16   0.00000000000000E+00   0.00000000000000E+00
      0.00000000000000E+00   0.00000000000000E+00  -2.62633133204230E-08   1.49140001569716E-27  -2.62633133204230E-08
      1.11126023365132E-16   2.99338562962963E-01   2.99338562962963E-01   0.00000000000000E+00   0.00000000000000E+00
      2.62633133204292E-08   1.80734757729310E-28   2.62633133204292E-08   2.21817655469686E-16
      4.49118083950617E-01
      0.00000000000000E+00   0.00000000000000E+00   0.00000000000000E+00   0.00000000000000E+00   0.00000000000000E+00
      0.00000000000000E+00   0.00000000000000E+00  -3.45156207998274E-16   0.00000000000000E+00   0.00000000000000E+00
      0.00000000000000E+00   0.00000000000000E+00  -2.71006563469146E-08  -1.58718545283180E-26  -2.71006563469146E-08
      1.11114567853339E-16   3.36838562962963E-01   3.36838562962963E-01   0.00000000000000E+00   0.00000000000000E+00
      2.71006562950224E-08  -4.79543683249686E-26   2.71006562950224E-08   2.35238137157219E-16
      4.99118083950617E-01
      0.00000000000000E+00   0.00000000000000E+00   0.00000000000000E+00   0.00000000000000E+00   0.00000000000000E+00
      0.00000000000000E+00   0.00000000000000E+00  -3.58499874514557E-16   0.00000000000000E+00   0.00000000000000E+00
      0.00000000000000E+00   0.00000000000000E+00  -2.79294726376924E-08  -2.07296313072699E-26  -2.79294726376924E-08
      1.11103222255147E-16   3.74338562962963E-01   3.74338562962963E-01   0.00000000000000E+00   0.00000000000000E+00
      2.79294723718402E-08  -3.88674553010616E-27   2.79294723718402E-08   2.48593273027136E-16
      5.49118083950617E-01
      0.00000000000000E+00   0.00000000000000E+00   0.00000000000000E+00   0.00000000000000E+00   0.00000000000000E+00
      0.00000000000000E+00   0.00000000000000E+00  -3.71781994225937E-16   0.00000000000000E+00   0.00000000000000E+00
      0.00000000000000E+00   0.00000000000000E+00  -2.87509563532683E-08   5.34830253944568E-25  -2.87509563532683E-08
      1.11091979309434E-16   4.11838562962963E-01   4.11838562962963E-01   0.00000000000000E+00   0.00000000000000E+00
      2.87508584155515E-08  -5.39219484502442E-24   2.87508584155515E-08   2.61886763274523E-16
      5.99118083950617E-01
      0.00000000000000E+00   0.00000000000000E+00   0.00000000000000E+00   0.00000000000000E+00   0.00000000000000E+00
      0.00000000000000E+00   0.00000000000000E+00  -3.85005786484994E-16   0.00000000000000E+00   0.00000000000000E+00
      0.00000000000000E+00   0.00000000000000E+00  -2.95661179188854E-08  -2.63678977655745E-24  -2.95661179188854E-08
      1.11080832701113E-16   4.49338562962963E-01   4.49338562962963E-01   0.00000000000000E+00   0.00000000000000E+00
      2.95661178814705E-08   2.86523540521794E-21   2.95661178814733E-08   2.75121830608977E-16
      6.49118083950617E-01
      0.00000000000000E+00   0.00000000000000E+00   0.00000000000000E+00   0.00000000000000E+00   0.00000000000000E+00
      0.00000000000000E+00   0.00000000000000E+00  -3.98174080160138E-16   0.00000000000000E+00   0.00000000000000E+00
      0.00000000000000E+00   0.00000000000000E+00  -3.03758210833140E-08  -5.09274300533779E-24  -3.03758210833140E-08
      1.11069776878188E-16   4.86838562962963E-01   4.86838562962963E-01   0.00000000000000E+00   0.00000000000000E+00
      3.03758127989203E-08   1.52095728054806E-20   3.03758127989355E-08   2.88301307374213E-16
      6.99118083950617E-01
      0.00000000000000E+00   0.00000000000000E+00   0.00000000000000E+00   0.00000000000000E+00   0.00000000000000E+00
      0.00000000000000E+00   0.00000000000000E+00  -4.11289374267495E-16   0.00000000000000E+00   0.00000000000000E+00
      0.00000000000000E+00   0.00000000000000E+00  -3.11808108987935E-08  -9.16766796920028E-25  -3.11808108987935E-08
      1.11058806920802E-16   5.24338562962963E-01   5.24338562962963E-01   0.00000000000000E+00   0.00000000000000E+00
      3.11808107478223E-08  -5.90118651417244E-22   3.11808107478217E-08   3.01427695889927E-16
      7.49118083950617E-01
      0.00000000000000E+00   0.00000000000000E+00   0.00000000000000E+00   0.00000000000000E+00   0.00000000000000E+00
      0.00000000000000E+00   0.00000000000000E+00  -4.24353883827601E-16   0.00000000000000E+00   0.00000000000000E+00
      0.00000000000000E+00   0.00000000000000E+00  -3.19817335337645E-08  -1.45599585073662E-24  -3.19817335337645E-08
      1.11047918442078E-16   5.61838562962963E-01   5.61838562962963E-01   0.00000000000000E+00   0.00000000000000E+00
      3.19817335335898E-08   3.48920082934365E-21   3.19817335335933E-08   3.14503217003898E-16
      7.99118083950617E-01
      0.00000000000000E+00   0.00000000000000E+00   0.00000000000000E+00   0.00000000000000E+00   0.00000000000000E+00
      0.00000000000000E+00   0.00000000000000E+00  -4.37369580493114E-16   0.00000000000000E+00   0.00000000000000E+00
      0.00000000000000E+00   0.00000000000000E+00  -3.27791535782028E-08  -2.24141158408384E-22  -3.27791535782030E-08
      1.11037107516513E-16   5.99338562962963E-01   5.99338562962963E-01   0.00000000000000E+00   0.00000000000000E+00
      3.27791535721776E-08   1.98692308184918E-19   3.27791535723763E-08   3.27529846960469E-16
      8.49118083950617E-01
      0.00000000000000E+00   0.00000000000000E+00   0.00000000000000E+00   0.00000000000000E+00   0.00000000000000E+00
      0.00000000000000E+00   0.00000000000000E+00  -4.50338223679997E-16   0.00000000000000E+00   0.00000000000000E+00
      0.00000000000000E+00   0.00000000000000E+00  -3.35735647881429E-08  -4.24599775934996E-22  -3.35735647881433E-08
      1.11026370676578E-16   6.36838562962963E-01   6.36838562962963E-01   0.00000000000000E+00   0.00000000000000E+00
      3.35735646648226E-08   3.86945149421296E-19   3.35735646652095E-08   3.40509349594123E-16
      8.99118083950618E-01
      0.00000000000000E+00   0.00000000000000E+00   0.00000000000000E+00   0.00000000000000E+00   0.00000000000000E+00
      0.00000000000000E+00   0.00000000000000E+00  -4.63261387811883E-16   0.00000000000000E+00   0.00000000000000E+00
      0.00000000000000E+00   0.00000000000000E+00  -3.43654038868297E-08  -5.37478895983461E-24  -3.43654038868297E-08
      1.11015704763889E-16   6.74338562962963E-01   6.74338562962963E-01   0.00000000000000E+00   0.00000000000000E+00
      3.43654038838237E-08   8.97750710035276E-22   3.43654038838246E-08   3.53443302906676E-16
      9.49118083950618E-01
      0.00000000000000E+00   0.00000000000000E+00   0.00000000000000E+00   0.00000000000000E+00   0.00000000000000E+00
      0.00000000000000E+00   0.00000000000000E+00  -4.76140484607305E-16   0.00000000000000E+00   0.00000000000000E+00
      0.00000000000000E+00   0.00000000000000E+00  -3.51550613675912E-08  -8.19977217519266E-23  -3.51550613675913E-08
      1.11005106824336E-16   7.11838562962963E-01   7.11838562962963E-01   0.00000000000000E+00   0.00000000000000E+00
      3.51550603751514E-08   6.14002807422406E-19   3.51550603757654E-08   3.66333120200363E-16
      9.99118083950618E-01
      0.00000000000000E+00   0.00000000000000E+00   0.00000000000000E+00   0.00000000000000E+00   0.00000000000000E+00
      0.00000000000000E+00   0.00000000000000E+00  -4.88976781179381E-16   0.00000000000000E+00   0.00000000000000E+00
      0.00000000000000E+00   0.00000000000000E+00  -3.59428844097833E-08  -3.75025460279224E-24  -3.59428844097833E-08
      1.10994574196616E-16   7.49338562962963E-01   7.49338562962963E-01   0.00000000000000E+00   0.00000000000000E+00
      3.59428844098322E-08   5.02742575432670E-20   3.59428844098825E-08   3.79180070688688E-16
      1.00000000000000E+00
      0.00000000000000E+00   0.00000000000000E+00   0.00000000000000E+00   0.00000000000000E+00   0.00000000000000E+00
      0.00000000000000E+00   0.00000000000000E+00  -4.89202814832918E-16   0.00000000000000E+00   0.00000000000000E+00
      0.00000000000000E+00   0.00000000000000E+00  -3.59567657423930E-08   2.95159320495485E-23  -3.59567657423930E-08
      1.10994388990017E-16   7.50000000000000E-01   7.50000000000000E-01   0.00000000000000E+00   0.00000000000000E+00
      3.59567657301841E-08   1.30212022067995E-18   3.59567657314862E-08   3.79406291676648E-16
}
