DF-ISE text

Info {
  version   = 1.0
  type      = xyplot
  datasets  = [
    "time"
    "gate OuterVoltage" "gate InnerVoltage" "gate QuasiFermiPotential" "gate DisplacementCurrent" "gate eCurrent"
    "gate hCurrent" "gate TotalCurrent" "gate Charge" "source OuterVoltage" "source InnerVoltage"
    "source QuasiFermiPotential" "source DisplacementCurrent" "source eCurrent" "source hCurrent" "source TotalCurrent"
    "source Charge" "drain OuterVoltage" "drain InnerVoltage" "drain QuasiFermiPotential" "drain DisplacementCurrent"
    "drain eCurrent" "drain hCurrent" "drain TotalCurrent" "drain Charge" ]
  functions = [
    Time
    OuterVoltage InnerVoltage QuasiFermiPotential DisplacementCurrent eCurrent
    hCurrent TotalCurrent Charge OuterVoltage InnerVoltage
    QuasiFermiPotential DisplacementCurrent eCurrent hCurrent TotalCurrent
    Charge OuterVoltage InnerVoltage QuasiFermiPotential DisplacementCurrent
    eCurrent hCurrent TotalCurrent Charge ]
}

Data {
      0.00000000000000E+00
      0.00000000000000E+00   0.00000000000000E+00   0.00000000000000E+00   0.00000000000000E+00   0.00000000000000E+00
      0.00000000000000E+00   0.00000000000000E+00  -2.38265644859997E-16   0.00000000000000E+00   0.00000000000000E+00
      0.00000000000000E+00   0.00000000000000E+00  -2.27029268114105E-20  -2.10314543647343E-31  -2.27029268116208E-20
      1.19493539433688E-16   0.00000000000000E+00   0.00000000000000E+00   0.00000000000000E+00   0.00000000000000E+00
      2.61003454222028E-21  -1.78691569408071E-31   2.61003454204159E-21   1.19971559920851E-16
      0.00000000000000E+00
      0.00000000000000E+00   0.00000000000000E+00   0.00000000000000E+00   0.00000000000000E+00   0.00000000000000E+00
      0.00000000000000E+00   0.00000000000000E+00  -2.38265536383930E-16   0.00000000000000E+00   0.00000000000000E+00
      0.00000000000000E+00   0.00000000000000E+00   2.48075073181374E-16  -1.89944002912766E-29   2.48075073181355E-16
      1.19493488524727E-16   0.00000000000000E+00   0.00000000000000E+00   0.00000000000000E+00   0.00000000000000E+00
      1.56328138483747E-16  -1.76681371865546E-28   1.56328138483571E-16   1.19971502362007E-16
      0.00000000000000E+00
      0.00000000000000E+00   0.00000000000000E+00   0.00000000000000E+00   0.00000000000000E+00   0.00000000000000E+00
      0.00000000000000E+00   0.00000000000000E+00  -2.38265536383681E-16   0.00000000000000E+00   0.00000000000000E+00
      0.00000000000000E+00   0.00000000000000E+00  -4.91650944902307E-20  -2.57327227619362E-33  -4.91650944902333E-20
      1.19493488524618E-16   0.00000000000000E+00   0.00000000000000E+00   0.00000000000000E+00   0.00000000000000E+00
     -1.39317471051304E-20  -5.10439415528955E-33  -1.39317471051355E-20   1.19971502361866E-16
      1.00000000000000E-03
      0.00000000000000E+00   0.00000000000000E+00   0.00000000000000E+00   0.00000000000000E+00   0.00000000000000E+00
      0.00000000000000E+00   0.00000000000000E+00  -2.38556332529776E-16   0.00000000000000E+00   0.00000000000000E+00
      0.00000000000000E+00   0.00000000000000E+00  -9.19994211660681E-10  -4.25525517580071E-27  -9.19994211660681E-10
      1.19493031008545E-16   7.80000000000000E-04   7.80000000000000E-04   0.00000000000000E+00   0.00000000000000E+00
      9.20434168286851E-10  -2.50851517314118E-26   9.20434168286851E-10   1.20262518251056E-16
      2.86666666666667E-03
      0.00000000000000E+00   0.00000000000000E+00   0.00000000000000E+00   0.00000000000000E+00   0.00000000000000E+00
      0.00000000000000E+00   0.00000000000000E+00  -2.39098991941463E-16   0.00000000000000E+00   0.00000000000000E+00
      0.00000000000000E+00   0.00000000000000E+00  -2.40924558731798E-09  -6.65589546201162E-27  -2.40924558731798E-09
      1.19492177177217E-16   2.23600000000000E-03   2.23600000000000E-03   0.00000000000000E+00   0.00000000000000E+00
      2.40924794778082E-09  -1.61015990195590E-26   2.40924794778082E-09   1.20805599756315E-16
      6.60000000000000E-03
      0.00000000000000E+00   0.00000000000000E+00   0.00000000000000E+00   0.00000000000000E+00   0.00000000000000E+00
      0.00000000000000E+00   0.00000000000000E+00  -2.40183689920889E-16   0.00000000000000E+00   0.00000000000000E+00
      0.00000000000000E+00   0.00000000000000E+00  -4.62320081073470E-09  -1.55456527111664E-26  -4.62320081073470E-09
      1.19490470510800E-16   5.14800000000000E-03   5.14800000000000E-03   0.00000000000000E+00   0.00000000000000E+00
      4.62323178439289E-09  -3.22531383593707E-26   4.62323178439289E-09   1.21891186606217E-16
      1.40666666666667E-02
      0.00000000000000E+00   0.00000000000000E+00   0.00000000000000E+00   0.00000000000000E+00   0.00000000000000E+00
      0.00000000000000E+00   0.00000000000000E+00  -2.42350637779039E-16   0.00000000000000E+00   0.00000000000000E+00
      0.00000000000000E+00   0.00000000000000E+00  -7.00829475121063E-09  -2.52312874345130E-26  -7.00829475121063E-09
      1.19487062820267E-16   1.09720000000000E-02   1.09720000000000E-02   0.00000000000000E+00   0.00000000000000E+00
      7.00829464956649E-09  -5.10624540275751E-26   7.00829464956649E-09   1.24060076729920E-16
      2.80044444444444E-02
      0.00000000000000E+00   0.00000000000000E+00   0.00000000000000E+00   0.00000000000000E+00   0.00000000000000E+00
      0.00000000000000E+00   0.00000000000000E+00  -2.46387107922146E-16   0.00000000000000E+00   0.00000000000000E+00
      0.00000000000000E+00   0.00000000000000E+00  -8.31121794410313E-09  -3.41811333295988E-26  -8.31121794410313E-09
      1.19480727788961E-16   2.18434666666667E-02   2.18434666666667E-02   0.00000000000000E+00   0.00000000000000E+00
      8.31121396685611E-09  -5.58672422073202E-26   8.31121396685611E-09   1.28100673342188E-16
      5.40216296296296E-02
      0.00000000000000E+00   0.00000000000000E+00   0.00000000000000E+00   0.00000000000000E+00   0.00000000000000E+00
      0.00000000000000E+00   0.00000000000000E+00  -2.53893688672381E-16   0.00000000000000E+00   0.00000000000000E+00
      0.00000000000000E+00   0.00000000000000E+00  -8.70646699410033E-09  -3.23537820487693E-28  -8.70646699410033E-09
      1.19468998033897E-16   4.21368711111111E-02   4.21368711111111E-02   0.00000000000000E+00   0.00000000000000E+00
      8.70646699410559E-09  -4.71426652582078E-30   8.70646699410559E-09   1.35616225252166E-16
      9.21801679012346E-02
      0.00000000000000E+00   0.00000000000000E+00   0.00000000000000E+00   0.00000000000000E+00   0.00000000000000E+00
      0.00000000000000E+00   0.00000000000000E+00  -2.64841877829790E-16   0.00000000000000E+00   0.00000000000000E+00
      0.00000000000000E+00   0.00000000000000E+00  -9.13176134183035E-09   1.06922449837470E-25  -9.13176134183035E-09
      1.19451999773600E-16   7.19005309629630E-02   7.19005309629630E-02   0.00000000000000E+00   0.00000000000000E+00
      9.13176150272196E-09   7.18534543756620E-26   9.13176150272196E-09   1.46579275936812E-16
      1.42180167901235E-01
      0.00000000000000E+00   0.00000000000000E+00   0.00000000000000E+00   0.00000000000000E+00   0.00000000000000E+00
      0.00000000000000E+00   0.00000000000000E+00  -2.79087186790370E-16   0.00000000000000E+00   0.00000000000000E+00
      0.00000000000000E+00   0.00000000000000E+00  -9.68414325900955E-09   1.64698481951384E-25  -9.68414325900955E-09
      1.19430052537046E-16   1.10900530962963E-01   1.10900530962963E-01   0.00000000000000E+00   0.00000000000000E+00
      9.68414316842100E-09   5.73564401283664E-26   9.68414316842100E-09   1.60845398113812E-16
      1.67180167901235E-01
      0.00000000000000E+00   0.00000000000000E+00   0.00000000000000E+00   0.00000000000000E+00   0.00000000000000E+00
      0.00000000000000E+00   0.00000000000000E+00  -2.86170694536678E-16   0.00000000000000E+00   0.00000000000000E+00
      0.00000000000000E+00   0.00000000000000E+00  -9.95887723099908E-09  -6.80036926141299E-26  -9.95887723099908E-09
      1.19419203763991E-16   1.30400530962963E-01   1.30400530962963E-01   0.00000000000000E+00   0.00000000000000E+00
      9.95887718650975E-09  -1.75723742460930E-26   9.95887718650975E-09   1.67939528588953E-16
      2.03846834567901E-01
      0.00000000000000E+00   0.00000000000000E+00   0.00000000000000E+00   0.00000000000000E+00   0.00000000000000E+00
      0.00000000000000E+00   0.00000000000000E+00  -2.96516128150326E-16   0.00000000000000E+00   0.00000000000000E+00
      0.00000000000000E+00   0.00000000000000E+00  -1.03606324264340E-08  -2.70464044616882E-26  -1.03606324264340E-08
      1.19403429687770E-16   1.59000530962963E-01   1.59000530962963E-01   0.00000000000000E+00   0.00000000000000E+00
      1.03606324264193E-08  -2.77518864124526E-27   1.03606324264193E-08   1.78300605809453E-16
      2.40513501234568E-01
      0.00000000000000E+00   0.00000000000000E+00   0.00000000000000E+00   0.00000000000000E+00   0.00000000000000E+00
      0.00000000000000E+00   0.00000000000000E+00  -3.06812689453344E-16   0.00000000000000E+00   0.00000000000000E+00
      0.00000000000000E+00   0.00000000000000E+00  -1.07614580900293E-08  -1.40824506235698E-29  -1.07614580900293E-08
      1.19387807700686E-16   1.87600530962963E-01   1.87600530962963E-01   0.00000000000000E+00   0.00000000000000E+00
      1.07614580900087E-08  -4.68445034409631E-30   1.07614580900087E-08   1.88612789628411E-16
      2.77180167901235E-01
      0.00000000000000E+00   0.00000000000000E+00   0.00000000000000E+00   0.00000000000000E+00   0.00000000000000E+00
      0.00000000000000E+00   0.00000000000000E+00  -3.17063415616295E-16   0.00000000000000E+00   0.00000000000000E+00
      0.00000000000000E+00   0.00000000000000E+00  -1.11618093000728E-08  -9.03216077944325E-27  -1.11618093000728E-08
      1.19372326840751E-16   2.16200530962963E-01   2.16200530962963E-01   0.00000000000000E+00   0.00000000000000E+00
      1.11618093002171E-08  -6.93354582512275E-28   1.11618093002171E-08   1.98879062794802E-16
      3.16291279012346E-01
      0.00000000000000E+00   0.00000000000000E+00   0.00000000000000E+00   0.00000000000000E+00   0.00000000000000E+00
      0.00000000000000E+00   0.00000000000000E+00  -3.27949978230583E-16   0.00000000000000E+00   0.00000000000000E+00
      0.00000000000000E+00   0.00000000000000E+00  -1.15887571100285E-08  -2.30795370384260E-27  -1.15887571100285E-08
      1.19355958860461E-16   2.46707197629630E-01   2.46707197629630E-01   0.00000000000000E+00   0.00000000000000E+00
      1.15887571086828E-08  -1.31883487712660E-27   1.15887571086828E-08   2.09782099126414E-16
      3.58009797530864E-01
      0.00000000000000E+00   0.00000000000000E+00   0.00000000000000E+00   0.00000000000000E+00   0.00000000000000E+00
      0.00000000000000E+00   0.00000000000000E+00  -3.39511305223140E-16   0.00000000000000E+00   0.00000000000000E+00
      0.00000000000000E+00   0.00000000000000E+00  -1.20444922614175E-08   5.44924480425791E-27  -1.20444922614175E-08
      1.19338653659018E-16   2.79247642074074E-01   2.79247642074074E-01   0.00000000000000E+00   0.00000000000000E+00
      1.20444922605840E-08   4.65149131474171E-27   1.20444922605840E-08   2.21360862053365E-16
      4.08009797530864E-01
      0.00000000000000E+00   0.00000000000000E+00   0.00000000000000E+00   0.00000000000000E+00   0.00000000000000E+00
      0.00000000000000E+00   0.00000000000000E+00  -3.53302362056881E-16   0.00000000000000E+00   0.00000000000000E+00
      0.00000000000000E+00   0.00000000000000E+00  -1.25916839166938E-08  -7.47877105341026E-25  -1.25916839166938E-08
      1.19318108320370E-16   3.18247642074074E-01   3.18247642074074E-01   0.00000000000000E+00   0.00000000000000E+00
      1.25916836837240E-08  -1.27913491331069E-24   1.25916836837240E-08   2.35172624294639E-16
      4.58009797530864E-01
      0.00000000000000E+00   0.00000000000000E+00   0.00000000000000E+00   0.00000000000000E+00   0.00000000000000E+00
      0.00000000000000E+00   0.00000000000000E+00  -3.67026414265292E-16   0.00000000000000E+00   0.00000000000000E+00
      0.00000000000000E+00   0.00000000000000E+00  -1.31404981880706E-08   3.96816982381324E-25  -1.31404981880706E-08
      1.19297761070095E-16   3.57247642074074E-01   3.57247642074074E-01   0.00000000000000E+00   0.00000000000000E+00
      1.31404692509635E-08   1.99313538029579E-23   1.31404692509635E-08   2.48917172198204E-16
      5.08009797530864E-01
      0.00000000000000E+00   0.00000000000000E+00   0.00000000000000E+00   0.00000000000000E+00   0.00000000000000E+00
      0.00000000000000E+00   0.00000000000000E+00  -3.80687304320387E-16   0.00000000000000E+00   0.00000000000000E+00
      0.00000000000000E+00   0.00000000000000E+00  -1.36914184943003E-08  -7.05375277264120E-25  -1.36914184943003E-08
      1.19277598536276E-16   3.96247642074074E-01   3.96247642074074E-01   0.00000000000000E+00   0.00000000000000E+00
      1.36914080551962E-08  -4.49756183735852E-23   1.36914080551961E-08   2.62598377358520E-16
      5.58009797530864E-01
      0.00000000000000E+00   0.00000000000000E+00   0.00000000000000E+00   0.00000000000000E+00   0.00000000000000E+00
      0.00000000000000E+00   0.00000000000000E+00  -3.94288376007440E-16   0.00000000000000E+00   0.00000000000000E+00
      0.00000000000000E+00   0.00000000000000E+00  -1.42448532363755E-08  -1.14842856314633E-23  -1.42448532363755E-08
      1.19257609085710E-16   4.35247642074074E-01   4.35247642074074E-01   0.00000000000000E+00   0.00000000000000E+00
      1.42447477897079E-08  -2.03005904061627E-21   1.42447477897059E-08   2.76219594313576E-16
      6.08009797530864E-01
      0.00000000000000E+00   0.00000000000000E+00   0.00000000000000E+00   0.00000000000000E+00   0.00000000000000E+00
      0.00000000000000E+00   0.00000000000000E+00  -4.07832553485951E-16   0.00000000000000E+00   0.00000000000000E+00
      0.00000000000000E+00   0.00000000000000E+00  -1.48011495929212E-08  -7.59349431615492E-25  -1.48011495929212E-08
      1.19237782548885E-16   4.74247642074074E-01   4.74247642074074E-01   0.00000000000000E+00   0.00000000000000E+00
      1.48011495921522E-08   1.17868486744757E-21   1.48011495921534E-08   2.89783754886153E-16
      6.58009797530864E-01
      0.00000000000000E+00   0.00000000000000E+00   0.00000000000000E+00   0.00000000000000E+00   0.00000000000000E+00
      0.00000000000000E+00   0.00000000000000E+00  -4.21322411748759E-16   0.00000000000000E+00   0.00000000000000E+00
      0.00000000000000E+00   0.00000000000000E+00  -1.53606063979501E-08  -2.99130382476242E-23  -1.53606063979501E-08
      1.19218109950452E-16   5.13247642074074E-01   5.13247642074074E-01   0.00000000000000E+00   0.00000000000000E+00
      1.53605698372465E-08   1.09226828961034E-20   1.53605698372574E-08   3.03293441434964E-16
      7.08009797530864E-01
      0.00000000000000E+00   0.00000000000000E+00   0.00000000000000E+00   0.00000000000000E+00   0.00000000000000E+00
      0.00000000000000E+00   0.00000000000000E+00  -4.34760227612876E-16   0.00000000000000E+00   0.00000000000000E+00
      0.00000000000000E+00   0.00000000000000E+00  -1.59234830545351E-08  -5.84142040325250E-25  -1.59234830545351E-08
      1.19198583280772E-16   5.52247642074074E-01   5.52247642074074E-01   0.00000000000000E+00   0.00000000000000E+00
      1.59234822075744E-08   3.87321661078550E-22   1.59234822075748E-08   3.16750937152281E-16
      7.58009797530864E-01
      0.00000000000000E+00   0.00000000000000E+00   0.00000000000000E+00   0.00000000000000E+00   0.00000000000000E+00
      0.00000000000000E+00   0.00000000000000E+00  -4.48148019161426E-16   0.00000000000000E+00   0.00000000000000E+00
      0.00000000000000E+00   0.00000000000000E+00  -1.64900061187557E-08  -3.03597861421741E-23  -1.64900061187557E-08
      1.19179195375991E-16   5.91247642074074E-01   5.91247642074074E-01   0.00000000000000E+00   0.00000000000000E+00
      1.64900061188796E-08   5.82285962773794E-20   1.64900061189378E-08   3.30158268703682E-16
      8.08009797530864E-01
      0.00000000000000E+00   0.00000000000000E+00   0.00000000000000E+00   0.00000000000000E+00   0.00000000000000E+00
      0.00000000000000E+00   0.00000000000000E+00  -4.61487580633419E-16   0.00000000000000E+00   0.00000000000000E+00
      0.00000000000000E+00   0.00000000000000E+00  -1.70603730610467E-08  -2.29713726844274E-23  -1.70603730610467E-08
      1.19159939887930E-16   6.30247642074074E-01   6.30247642074074E-01   0.00000000000000E+00   0.00000000000000E+00
      1.70603730610723E-08   1.82010109498356E-20   1.70603730610905E-08   3.43517237604386E-16
      8.58009797530864E-01
      0.00000000000000E+00   0.00000000000000E+00   0.00000000000000E+00   0.00000000000000E+00   0.00000000000000E+00
      0.00000000000000E+00   0.00000000000000E+00  -4.74780508658977E-16   0.00000000000000E+00   0.00000000000000E+00
      0.00000000000000E+00   0.00000000000000E+00  -1.76347540674681E-08  -2.15251355138758E-22  -1.76347540674683E-08
      1.19140811314367E-16   6.69247642074074E-01   6.69247642074074E-01   0.00000000000000E+00   0.00000000000000E+00
      1.76347533602556E-08   1.62837726853939E-19   1.76347533604184E-08   3.56829449237908E-16
      9.08009797530865E-01
      0.00000000000000E+00   0.00000000000000E+00   0.00000000000000E+00   0.00000000000000E+00   0.00000000000000E+00
      0.00000000000000E+00   0.00000000000000E+00  -4.88028232204107E-16   0.00000000000000E+00   0.00000000000000E+00
      0.00000000000000E+00   0.00000000000000E+00  -1.82133078275012E-08   5.14837107702758E-25  -1.82133078275012E-08
      1.19121804238804E-16   7.08247642074074E-01   7.08247642074074E-01   0.00000000000000E+00   0.00000000000000E+00
      1.82133078162559E-08  -3.11104257015475E-22   1.82133078162555E-08   3.70096335675117E-16
      9.58009797530865E-01
      0.00000000000000E+00   0.00000000000000E+00   0.00000000000000E+00   0.00000000000000E+00   0.00000000000000E+00
      0.00000000000000E+00   0.00000000000000E+00  -5.01232026072560E-16   0.00000000000000E+00   0.00000000000000E+00
      0.00000000000000E+00   0.00000000000000E+00  -1.87961747591479E-08  -1.23521519626724E-25  -1.87961747591479E-08
      1.19102913809630E-16   7.47247642074074E-01   7.47247642074074E-01   0.00000000000000E+00   0.00000000000000E+00
      1.87961747591368E-08   1.31899574715279E-20   1.87961747591500E-08   3.83319175009637E-16
      1.00000000000000E+00
      0.00000000000000E+00   0.00000000000000E+00   0.00000000000000E+00   0.00000000000000E+00   0.00000000000000E+00
      0.00000000000000E+00   0.00000000000000E+00  -5.12287524454829E-16   0.00000000000000E+00   0.00000000000000E+00
      0.00000000000000E+00   0.00000000000000E+00  -1.92890922662763E-08  -7.56218368539641E-24  -1.92890922662763E-08
      1.19087136473941E-16   7.80000000000000E-01   7.80000000000000E-01   0.00000000000000E+00   0.00000000000000E+00
      1.92890922660129E-08   2.21707868125560E-19   1.92890922662346E-08   3.94390580313929E-16
}
