DF-ISE text

Info {
  version   = 1.0
  type      = xyplot
  datasets  = [
    "time"
    "gate OuterVoltage" "gate InnerVoltage" "gate QuasiFermiPotential" "gate DisplacementCurrent" "gate eCurrent"
    "gate hCurrent" "gate TotalCurrent" "gate Charge" "source OuterVoltage" "source InnerVoltage"
    "source QuasiFermiPotential" "source DisplacementCurrent" "source eCurrent" "source hCurrent" "source TotalCurrent"
    "source Charge" "drain OuterVoltage" "drain InnerVoltage" "drain QuasiFermiPotential" "drain DisplacementCurrent"
    "drain eCurrent" "drain hCurrent" "drain TotalCurrent" "drain Charge" ]
  functions = [
    Time
    OuterVoltage InnerVoltage QuasiFermiPotential DisplacementCurrent eCurrent
    hCurrent TotalCurrent Charge OuterVoltage InnerVoltage
    QuasiFermiPotential DisplacementCurrent eCurrent hCurrent TotalCurrent
    Charge OuterVoltage InnerVoltage QuasiFermiPotential DisplacementCurrent
    eCurrent hCurrent TotalCurrent Charge ]
}

Data {
      0.00000000000000E+00
      0.00000000000000E+00   0.00000000000000E+00   0.00000000000000E+00   0.00000000000000E+00   0.00000000000000E+00
      0.00000000000000E+00   0.00000000000000E+00  -1.74288995005323E-16   0.00000000000000E+00   0.00000000000000E+00
      0.00000000000000E+00   0.00000000000000E+00  -4.11498949857729E-20  -7.49970247575471E-34  -4.11498949857737E-20
      1.78470120522038E-16   0.00000000000000E+00   0.00000000000000E+00   0.00000000000000E+00   0.00000000000000E+00
     -2.05199265751708E-22  -1.96001523935753E-32  -2.05199265771308E-22   1.44653862382179E-16
      0.00000000000000E+00
      0.00000000000000E+00   0.00000000000000E+00   0.00000000000000E+00   0.00000000000000E+00   0.00000000000000E+00
      0.00000000000000E+00   0.00000000000000E+00  -1.74287279873346E-16   0.00000000000000E+00   0.00000000000000E+00
      0.00000000000000E+00   0.00000000000000E+00  -1.38217232990155E-10   3.60074748087964E-26  -1.38217232990155E-10
      1.78474226512667E-16   0.00000000000000E+00   0.00000000000000E+00   0.00000000000000E+00   0.00000000000000E+00
      1.64411956281613E-12  -3.67247525011796E-26   1.64411956281609E-12   1.44652987176948E-16
      0.00000000000000E+00
      0.00000000000000E+00   0.00000000000000E+00   0.00000000000000E+00   0.00000000000000E+00   0.00000000000000E+00
      0.00000000000000E+00   0.00000000000000E+00  -1.74287279737381E-16   0.00000000000000E+00   0.00000000000000E+00
      0.00000000000000E+00   0.00000000000000E+00   1.86864210174731E-18   3.66297579228093E-28   1.86864210211361E-18
      1.78474226849659E-16   0.00000000000000E+00   0.00000000000000E+00   0.00000000000000E+00   0.00000000000000E+00
     -3.17983730037402E-20  -3.14036478302056E-28  -3.17983733177766E-20   1.44652987106920E-16
      1.00000000000000E-03
      0.00000000000000E+00   0.00000000000000E+00   0.00000000000000E+00   0.00000000000000E+00   0.00000000000000E+00
      0.00000000000000E+00   0.00000000000000E+00  -1.75122843353943E-16   0.00000000000000E+00   0.00000000000000E+00
      0.00000000000000E+00   0.00000000000000E+00  -1.08172124456428E-09   6.45710335229769E-27  -1.08172124456428E-09
      1.78474113740928E-16   1.50000000000000E-03   1.50000000000000E-03   0.00000000000000E+00   0.00000000000000E+00
      1.08172143145431E-09   1.22538571974481E-29   1.08172143145431E-09   1.45456971892502E-16
      2.73333333333333E-03
      0.00000000000000E+00   0.00000000000000E+00   0.00000000000000E+00   0.00000000000000E+00   0.00000000000000E+00
      0.00000000000000E+00   0.00000000000000E+00  -1.76568829402976E-16   0.00000000000000E+00   0.00000000000000E+00
      0.00000000000000E+00   0.00000000000000E+00  -2.79007231894472E-09  -7.50725896098876E-27  -2.79007231894472E-09
      1.78473921130101E-16   4.10000000000000E-03   4.10000000000000E-03   0.00000000000000E+00   0.00000000000000E+00
      2.78975158511957E-09   8.28113570435009E-27   2.78975158511957E-09   1.46850315091727E-16
      6.20000000000000E-03
      0.00000000000000E+00   0.00000000000000E+00   0.00000000000000E+00   0.00000000000000E+00   0.00000000000000E+00
      0.00000000000000E+00   0.00000000000000E+00  -1.79452364314352E-16   0.00000000000000E+00   0.00000000000000E+00
      0.00000000000000E+00   0.00000000000000E+00  -5.65063985915867E-09  -9.40975911386085E-33  -5.65063985915867E-09
      1.78473547685212E-16   9.30000000000000E-03   9.30000000000000E-03   0.00000000000000E+00   0.00000000000000E+00
      5.65063985981585E-09   3.19178553690946E-33   5.65063985981585E-09   1.49636064113678E-16
      1.22088888888889E-02
      0.00000000000000E+00   0.00000000000000E+00   0.00000000000000E+00   0.00000000000000E+00   0.00000000000000E+00
      0.00000000000000E+00   0.00000000000000E+00  -1.84425962280789E-16   0.00000000000000E+00   0.00000000000000E+00
      0.00000000000000E+00   0.00000000000000E+00  -9.22469902176399E-09  -2.55515783420344E-31  -9.22469902176399E-09
      1.78472931040987E-16   1.83133333333333E-02   1.83133333333333E-02   0.00000000000000E+00   0.00000000000000E+00
      9.22469902201401E-09   3.18949841027691E-31   9.22469902201401E-09   1.54461422003589E-16
      2.26242962962963E-02
      0.00000000000000E+00   0.00000000000000E+00   0.00000000000000E+00   0.00000000000000E+00   0.00000000000000E+00
      0.00000000000000E+00   0.00000000000000E+00  -1.92982836944262E-16   0.00000000000000E+00   0.00000000000000E+00
      0.00000000000000E+00   0.00000000000000E+00  -1.27039853994715E-08  -9.94826056225517E-30  -1.27039853994715E-08
      1.78471927562120E-16   3.39364444444444E-02   3.39364444444444E-02   0.00000000000000E+00   0.00000000000000E+00
      1.27039853988468E-08  -5.46280618589116E-30   1.27039853988468E-08   1.62814152872434E-16
      4.06776691358025E-02
      0.00000000000000E+00   0.00000000000000E+00   0.00000000000000E+00   0.00000000000000E+00   0.00000000000000E+00
      0.00000000000000E+00   0.00000000000000E+00  -2.07661100625594E-16   0.00000000000000E+00   0.00000000000000E+00
      0.00000000000000E+00   0.00000000000000E+00  -1.49031177261750E-08  -2.19461207783957E-31  -1.49031177261750E-08
      1.78470297328956E-16   6.10165037037037E-02   6.10165037037037E-02   0.00000000000000E+00   0.00000000000000E+00
      1.49031177257098E-08   5.32294157734638E-33   1.49031177257098E-08   1.77253460193824E-16
      6.95630656790124E-02
      0.00000000000000E+00   0.00000000000000E+00   0.00000000000000E+00   0.00000000000000E+00   0.00000000000000E+00
      0.00000000000000E+00   0.00000000000000E+00  -2.30853677374056E-16   0.00000000000000E+00   0.00000000000000E+00
      0.00000000000000E+00   0.00000000000000E+00  -1.58034621129036E-08   2.85938796594966E-30  -1.58034621129036E-08
      1.78467804727294E-16   1.04344598518519E-01   1.04344598518519E-01   0.00000000000000E+00   0.00000000000000E+00
      1.58034621124076E-08   2.65857819849507E-30   1.58034621124076E-08   2.00243663623594E-16
      1.15779700148148E-01
      0.00000000000000E+00   0.00000000000000E+00   0.00000000000000E+00   0.00000000000000E+00   0.00000000000000E+00
      0.00000000000000E+00   0.00000000000000E+00  -2.67469239798588E-16   0.00000000000000E+00   0.00000000000000E+00
      0.00000000000000E+00   0.00000000000000E+00  -1.66939322373824E-08  -4.06023549134031E-32  -1.66939322373824E-08
      1.78463928362491E-16   1.73669550222222E-01   1.73669550222222E-01   0.00000000000000E+00   0.00000000000000E+00
      1.66939322388626E-08  -1.41422177882438E-33   1.66939322388626E-08   2.36741018242834E-16
      1.65779700148148E-01
      0.00000000000000E+00   0.00000000000000E+00   0.00000000000000E+00   0.00000000000000E+00   0.00000000000000E+00
      0.00000000000000E+00   0.00000000000000E+00  -3.06634045384186E-16   0.00000000000000E+00   0.00000000000000E+00
      0.00000000000000E+00   0.00000000000000E+00  -1.75863531560216E-08   1.89761852969219E-30  -1.75863531560216E-08
      1.78459831791442E-16   2.48669550222222E-01   2.48669550222222E-01   0.00000000000000E+00   0.00000000000000E+00
      1.75863531555343E-08  -1.44923655247803E-28   1.75863531555343E-08   2.75876798248458E-16
      2.15779700148148E-01
      0.00000000000000E+00   0.00000000000000E+00   0.00000000000000E+00   0.00000000000000E+00   0.00000000000000E+00
      0.00000000000000E+00   0.00000000000000E+00  -3.45478160299901E-16   0.00000000000000E+00   0.00000000000000E+00
      0.00000000000000E+00   0.00000000000000E+00  -1.84247494643830E-08  -7.83489600908794E-24  -1.84247494643831E-08
      1.78455813459334E-16   3.23669550222222E-01   3.23669550222222E-01   0.00000000000000E+00   0.00000000000000E+00
      1.84247494855104E-08  -4.56823303693189E-25   1.84247494855104E-08   3.14720967808406E-16
      2.65779700148148E-01
      0.00000000000000E+00   0.00000000000000E+00   0.00000000000000E+00   0.00000000000000E+00   0.00000000000000E+00
      0.00000000000000E+00   0.00000000000000E+00  -3.84089746492896E-16   0.00000000000000E+00   0.00000000000000E+00
      0.00000000000000E+00   0.00000000000000E+00  -1.92230887075500E-08   2.75900520445656E-29  -1.92230887075500E-08
      1.78451858534382E-16   3.98669550222222E-01   3.98669550222222E-01   0.00000000000000E+00   0.00000000000000E+00
      1.92230887054193E-08  -8.63873526118887E-27   1.92230887054193E-08   3.53340521749424E-16
      3.15779700148148E-01
      0.00000000000000E+00   0.00000000000000E+00   0.00000000000000E+00   0.00000000000000E+00   0.00000000000000E+00
      0.00000000000000E+00   0.00000000000000E+00  -4.22532401628067E-16   0.00000000000000E+00   0.00000000000000E+00
      0.00000000000000E+00   0.00000000000000E+00  -1.99877141385052E-08  -2.70646893981403E-26  -1.99877141385052E-08
      1.78447953698108E-16   4.73669550222222E-01   4.73669550222222E-01   0.00000000000000E+00   0.00000000000000E+00
      1.99877141503136E-08  -6.72747602812214E-26   1.99877141503136E-08   3.91793214931751E-16
      3.65779700148148E-01
      0.00000000000000E+00   0.00000000000000E+00   0.00000000000000E+00   0.00000000000000E+00   0.00000000000000E+00
      0.00000000000000E+00   0.00000000000000E+00  -4.60856174204271E-16   0.00000000000000E+00   0.00000000000000E+00
      0.00000000000000E+00   0.00000000000000E+00  -2.07252519809536E-08   3.31537903673801E-25  -2.07252519809536E-08
      1.78444086292017E-16   5.48669550222222E-01   5.48669550222222E-01   0.00000000000000E+00   0.00000000000000E+00
      2.07251271110177E-08  -4.90458419197705E-26   2.07251271110177E-08   4.30127496875124E-16
      4.15779700148148E-01
      0.00000000000000E+00   0.00000000000000E+00   0.00000000000000E+00   0.00000000000000E+00   0.00000000000000E+00
      0.00000000000000E+00   0.00000000000000E+00  -4.99099860673220E-16   0.00000000000000E+00   0.00000000000000E+00
      0.00000000000000E+00   0.00000000000000E+00  -2.14422684389285E-08   5.99763259266839E-26  -2.14422684389285E-08
      1.78440245235706E-16   6.23669550222222E-01   6.23669550222222E-01   0.00000000000000E+00   0.00000000000000E+00
      2.14422629340817E-08  -8.05349276397688E-27   2.14422629340817E-08   4.68381773955250E-16
      4.65779700148148E-01
      0.00000000000000E+00   0.00000000000000E+00   0.00000000000000E+00   0.00000000000000E+00   0.00000000000000E+00
      0.00000000000000E+00   0.00000000000000E+00  -5.37291799148999E-16   0.00000000000000E+00   0.00000000000000E+00
      0.00000000000000E+00   0.00000000000000E+00  -2.21452978111483E-08   3.36978465296025E-27  -2.21452978111483E-08
      1.78436421845047E-16   6.98669550222222E-01   6.98669550222222E-01   0.00000000000000E+00   0.00000000000000E+00
      2.21452977853702E-08  -3.28919351251317E-26   2.21452977853702E-08   5.06584308755955E-16
      5.15779700148148E-01
      0.00000000000000E+00   0.00000000000000E+00   0.00000000000000E+00   0.00000000000000E+00   0.00000000000000E+00
      0.00000000000000E+00   0.00000000000000E+00  -5.75451382179815E-16   0.00000000000000E+00   0.00000000000000E+00
      0.00000000000000E+00   0.00000000000000E+00  -2.28367268923687E-08  -1.61082150533604E-25  -2.28367268923687E-08
      1.78432609924023E-16   7.73669550222222E-01   7.73669550222222E-01   0.00000000000000E+00   0.00000000000000E+00
      2.28367279002472E-08  -7.64277031327452E-26   2.28367279002472E-08   5.44754480460042E-16
      5.65779700148148E-01
      0.00000000000000E+00   0.00000000000000E+00   0.00000000000000E+00   0.00000000000000E+00   0.00000000000000E+00
      0.00000000000000E+00   0.00000000000000E+00  -6.13591179682204E-16   0.00000000000000E+00   0.00000000000000E+00
      0.00000000000000E+00   0.00000000000000E+00  -2.35179802600916E-08  -3.53049242187218E-26  -2.35179802600916E-08
      1.78428805320845E-16   8.48669550222222E-01   8.48669550222222E-01   0.00000000000000E+00   0.00000000000000E+00
      2.35179798612559E-08  -9.49103278796982E-26   2.35179798612559E-08   5.82904859614218E-16
      6.15779700148148E-01
      0.00000000000000E+00   0.00000000000000E+00   0.00000000000000E+00   0.00000000000000E+00   0.00000000000000E+00
      0.00000000000000E+00   0.00000000000000E+00  -6.51719032170538E-16   0.00000000000000E+00   0.00000000000000E+00
      0.00000000000000E+00   0.00000000000000E+00  -2.41901776404343E-08   2.09427070238644E-25  -2.41901776404343E-08
      1.78425005341361E-16   9.23669550222222E-01   9.23669550222222E-01   0.00000000000000E+00   0.00000000000000E+00
      2.41901779936232E-08  -9.04695345825604E-26   2.41901779936232E-08   6.21043288269321E-16
      6.65779700148148E-01
      0.00000000000000E+00   0.00000000000000E+00   0.00000000000000E+00   0.00000000000000E+00   0.00000000000000E+00
      0.00000000000000E+00   0.00000000000000E+00  -6.89839711162365E-16   0.00000000000000E+00   0.00000000000000E+00
      0.00000000000000E+00   0.00000000000000E+00  -2.48544691827479E-08   1.56200776082016E-23  -2.48544691827479E-08
      1.78421208246199E-16   9.98669550222222E-01   9.98669550222222E-01   0.00000000000000E+00   0.00000000000000E+00
      2.48544541722648E-08  -6.12600631401339E-22   2.48544541722642E-08   6.59174536517128E-16
      7.15779700148148E-01
      0.00000000000000E+00   0.00000000000000E+00   0.00000000000000E+00   0.00000000000000E+00   0.00000000000000E+00
      0.00000000000000E+00   0.00000000000000E+00  -7.27956078916287E-16   0.00000000000000E+00   0.00000000000000E+00
      0.00000000000000E+00   0.00000000000000E+00  -2.55118509976262E-08  -3.88590976103968E-25  -2.55118509976262E-08
      1.78417412867261E-16   1.07366955022222E+00   1.07366955022222E+00   0.00000000000000E+00   0.00000000000000E+00
      2.55118512289808E-08  -5.08890147443630E-26   2.55118512289808E-08   6.97301461534480E-16
      7.65779700148148E-01
      0.00000000000000E+00   0.00000000000000E+00   0.00000000000000E+00   0.00000000000000E+00   0.00000000000000E+00
      0.00000000000000E+00   0.00000000000000E+00  -7.66069840543430E-16   0.00000000000000E+00   0.00000000000000E+00
      0.00000000000000E+00   0.00000000000000E+00  -2.61633597472114E-08  -3.61195835460129E-23  -2.61633597472114E-08
      1.78413618355602E-16   1.14866955022222E+00   1.14866955022222E+00   0.00000000000000E+00   0.00000000000000E+00
      2.61633672811727E-08  -5.82871646196353E-22   2.61633672811721E-08   7.35425759581126E-16
      8.15779700148148E-01
      0.00000000000000E+00   0.00000000000000E+00   0.00000000000000E+00   0.00000000000000E+00   0.00000000000000E+00
      0.00000000000000E+00   0.00000000000000E+00  -8.04182014638601E-16   0.00000000000000E+00   0.00000000000000E+00
      0.00000000000000E+00   0.00000000000000E+00  -2.68112540651857E-08   2.45793271179337E-23  -2.68112540651857E-08
      1.78409823969421E-16   1.22366955022222E+00   1.22366955022222E+00   0.00000000000000E+00   0.00000000000000E+00
      2.68112472819896E-08  -4.75824603004785E-22   2.68112472819891E-08   7.73548432802178E-16
      8.65779700148148E-01
      0.00000000000000E+00   0.00000000000000E+00   0.00000000000000E+00   0.00000000000000E+00   0.00000000000000E+00
      0.00000000000000E+00   0.00000000000000E+00  -8.42293210039550E-16   0.00000000000000E+00   0.00000000000000E+00
      0.00000000000000E+00   0.00000000000000E+00  -2.74565006830291E-08   2.79649386146114E-24  -2.74565006830291E-08
      1.78406029021265E-16   1.29866955022222E+00   1.29866955022222E+00   0.00000000000000E+00   0.00000000000000E+00
      2.74564979738125E-08  -3.44528526387868E-22   2.74564979738122E-08   8.11670071678126E-16
      9.15779700148148E-01
      0.00000000000000E+00   0.00000000000000E+00   0.00000000000000E+00   0.00000000000000E+00   0.00000000000000E+00
      0.00000000000000E+00   0.00000000000000E+00  -8.80403795561183E-16   0.00000000000000E+00   0.00000000000000E+00
      0.00000000000000E+00   0.00000000000000E+00  -2.80994341864891E-08   4.05760318360345E-23  -2.80994341864891E-08
      1.78402232795211E-16   1.37366955022222E+00   1.37366955022222E+00   0.00000000000000E+00   0.00000000000000E+00
      2.80994352428412E-08  -2.03448257111265E-22   2.80994352428409E-08   8.49791023529922E-16
      9.65779700148149E-01
      0.00000000000000E+00   0.00000000000000E+00   0.00000000000000E+00   0.00000000000000E+00   0.00000000000000E+00
      0.00000000000000E+00   0.00000000000000E+00  -9.18514001323200E-16   0.00000000000000E+00   0.00000000000000E+00
      0.00000000000000E+00   0.00000000000000E+00  -2.87402468013055E-08  -2.58506925661222E-23  -2.87402468013055E-08
      1.78398434482735E-16   1.44866955022222E+00   1.44866955022222E+00   0.00000000000000E+00   0.00000000000000E+00
      2.87402459908085E-08  -1.60481550218979E-23   2.87402459908085E-08   8.87911492259777E-16
      1.00000000000000E+00
      0.00000000000000E+00   0.00000000000000E+00   0.00000000000000E+00   0.00000000000000E+00   0.00000000000000E+00
      0.00000000000000E+00   0.00000000000000E+00  -9.44596715518418E-16   0.00000000000000E+00   0.00000000000000E+00
      0.00000000000000E+00   0.00000000000000E+00  -2.91776086662160E-08  -2.47806773705834E-25  -2.91776086662160E-08
      1.78395833215650E-16   1.50000000000000E+00   1.50000000000000E+00   0.00000000000000E+00   0.00000000000000E+00
      2.91776123632849E-08   4.87027512336335E-23   2.91776123632849E-08   9.14001155000717E-16
}
