DF-ISE text

Info {
  version   = 1.0
  type      = xyplot
  datasets  = [
    "time"
    "gate OuterVoltage" "gate InnerVoltage" "gate QuasiFermiPotential" "gate DisplacementCurrent" "gate eCurrent"
    "gate hCurrent" "gate TotalCurrent" "gate Charge" "source OuterVoltage" "source InnerVoltage"
    "source QuasiFermiPotential" "source DisplacementCurrent" "source eCurrent" "source hCurrent" "source TotalCurrent"
    "source Charge" "drain OuterVoltage" "drain InnerVoltage" "drain QuasiFermiPotential" "drain DisplacementCurrent"
    "drain eCurrent" "drain hCurrent" "drain TotalCurrent" "drain Charge" ]
  functions = [
    Time
    OuterVoltage InnerVoltage QuasiFermiPotential DisplacementCurrent eCurrent
    hCurrent TotalCurrent Charge OuterVoltage InnerVoltage
    QuasiFermiPotential DisplacementCurrent eCurrent hCurrent TotalCurrent
    Charge OuterVoltage InnerVoltage QuasiFermiPotential DisplacementCurrent
    eCurrent hCurrent TotalCurrent Charge ]
}

Data {
      0.00000000000000E+00
      0.00000000000000E+00   0.00000000000000E+00   0.00000000000000E+00   0.00000000000000E+00   0.00000000000000E+00
      0.00000000000000E+00   0.00000000000000E+00   1.93465415818108E-16   0.00000000000000E+00   0.00000000000000E+00
      0.00000000000000E+00   0.00000000000000E+00  -2.99132326128452E-18  -1.52822081309407E-18  -4.51954407437859E-18
     -9.71912704551791E-17   0.00000000000000E+00   0.00000000000000E+00   0.00000000000000E+00   0.00000000000000E+00
      5.72085856476110E-19  -1.97584787137442E-18  -1.40376201489831E-18  -9.75547246945298E-17
      0.00000000000000E+00
      0.00000000000000E+00   0.00000000000000E+00   0.00000000000000E+00   0.00000000000000E+00   0.00000000000000E+00
      0.00000000000000E+00   0.00000000000000E+00   2.13995458676076E-16   0.00000000000000E+00   0.00000000000000E+00
      0.00000000000000E+00   0.00000000000000E+00  -4.08742580580366E-18  -2.66203129762254E-17  -3.07077387820291E-17
     -1.07964790513421E-16   0.00000000000000E+00   0.00000000000000E+00   0.00000000000000E+00   0.00000000000000E+00
     -4.29039499728454E-18  -4.54216172813710E-18  -8.83255672542164E-18  -1.07689046869435E-16
      0.00000000000000E+00
      0.00000000000000E+00   0.00000000000000E+00   0.00000000000000E+00   0.00000000000000E+00   0.00000000000000E+00
      0.00000000000000E+00   0.00000000000000E+00   2.13995458612535E-16   0.00000000000000E+00   0.00000000000000E+00
      0.00000000000000E+00   0.00000000000000E+00  -7.55790120822621E-18   6.90163133108671E-18  -6.56269877139499E-19
     -1.07964790510726E-16   0.00000000000000E+00   0.00000000000000E+00   0.00000000000000E+00   0.00000000000000E+00
      6.29392802404584E-18  -6.61530903018085E-18  -3.21381006135008E-19  -1.07689046863055E-16
      1.00000000000000E-03
      0.00000000000000E+00   0.00000000000000E+00   0.00000000000000E+00   0.00000000000000E+00   0.00000000000000E+00
      0.00000000000000E+00   0.00000000000000E+00   2.14014432053679E-16   0.00000000000000E+00   0.00000000000000E+00
      0.00000000000000E+00   0.00000000000000E+00   1.23079374659519E-10   6.22059277803067E-15   1.23085595252297E-10
     -1.07964772159961E-16  -5.00000000000000E-05  -5.00000000000000E-05   0.00000000000000E+00   0.00000000000000E+00
     -1.23079231987143E-10   7.50304612237517E-11  -4.80487707633913E-11  -1.07707916003253E-16
      3.00000000000000E-03
      0.00000000000000E+00   0.00000000000000E+00   0.00000000000000E+00   0.00000000000000E+00   0.00000000000000E+00
      0.00000000000000E+00   0.00000000000000E+00   2.14052377572040E-16   0.00000000000000E+00   0.00000000000000E+00
      0.00000000000000E+00   0.00000000000000E+00   3.67687829661883E-10  -2.65588558977298E-17   3.67687803103027E-10
     -1.07964735460275E-16  -1.50000000000000E-04  -1.50000000000000E-04   0.00000000000000E+00   0.00000000000000E+00
     -3.67687855065237E-10   2.17638266194750E-17  -3.67687833301411E-10  -1.07745653347479E-16
      7.00000000000000E-03
      0.00000000000000E+00   0.00000000000000E+00   0.00000000000000E+00   0.00000000000000E+00   0.00000000000000E+00
      0.00000000000000E+00   0.00000000000000E+00   2.14128265277547E-16   0.00000000000000E+00   0.00000000000000E+00
      0.00000000000000E+00   0.00000000000000E+00   8.52429302349644E-10   7.09885005569652E-17   8.52429373338145E-10
     -1.07964662064261E-16  -3.50000000000000E-04  -3.50000000000000E-04   0.00000000000000E+00   0.00000000000000E+00
     -8.52429357755731E-10  -1.97722934354755E-15  -8.52431334985075E-10  -1.07821125749023E-16
      1.50000000000000E-02
      0.00000000000000E+00   0.00000000000000E+00   0.00000000000000E+00   0.00000000000000E+00   0.00000000000000E+00
      0.00000000000000E+00   0.00000000000000E+00   2.14280026170277E-16   0.00000000000000E+00   0.00000000000000E+00
      0.00000000000000E+00   0.00000000000000E+00   1.80129357105135E-09  -4.01242748149237E-17   1.80129353092707E-09
     -1.07964515285011E-16  -7.50000000000000E-04  -7.50000000000000E-04   0.00000000000000E+00   0.00000000000000E+00
     -1.80129354041903E-09  -1.15853369771248E-16  -1.80129365627240E-09  -1.07972060576824E-16
      3.10000000000000E-02
      0.00000000000000E+00   0.00000000000000E+00   0.00000000000000E+00   0.00000000000000E+00   0.00000000000000E+00
      0.00000000000000E+00   0.00000000000000E+00   2.14583490033593E-16   0.00000000000000E+00   0.00000000000000E+00
      0.00000000000000E+00   0.00000000000000E+00   3.61194029332085E-09  -8.03045248826346E-17   3.61194021301632E-09
     -1.07964221769626E-16  -1.55000000000000E-03  -1.55000000000000E-03   0.00000000000000E+00   0.00000000000000E+00
     -3.61194031949423E-09  -1.85821204760622E-15  -3.61194217770628E-09  -1.08273890355503E-16
      6.30000000000000E-02
      0.00000000000000E+00   0.00000000000000E+00   0.00000000000000E+00   0.00000000000000E+00   0.00000000000000E+00
      0.00000000000000E+00   0.00000000000000E+00   2.15190187256319E-16   0.00000000000000E+00   0.00000000000000E+00
      0.00000000000000E+00   0.00000000000000E+00   6.87951956268076E-09  -7.68203735810299E-16   6.87951879447702E-09
     -1.07963634900741E-16  -3.15000000000000E-03  -3.15000000000000E-03   0.00000000000000E+00   0.00000000000000E+00
     -6.87952050452701E-09  -2.87174320955404E-14  -6.87954922195910E-09  -1.08877390541665E-16
      1.13000000000000E-01
      0.00000000000000E+00   0.00000000000000E+00   0.00000000000000E+00   0.00000000000000E+00   0.00000000000000E+00
      0.00000000000000E+00   0.00000000000000E+00   2.16137541801838E-16   0.00000000000000E+00   0.00000000000000E+00
      0.00000000000000E+00   0.00000000000000E+00   1.10934959791599E-08   1.81471419183458E-15   1.10934977938741E-08
     -1.07962718431422E-16  -5.65000000000000E-03  -5.65000000000000E-03   0.00000000000000E+00   0.00000000000000E+00
     -1.10935004992492E-08  -2.07475662330678E-13  -1.10937079749116E-08  -1.09819934691999E-16
      1.63000000000000E-01
      0.00000000000000E+00   0.00000000000000E+00   0.00000000000000E+00   0.00000000000000E+00   0.00000000000000E+00
      0.00000000000000E+00   0.00000000000000E+00   2.17084161319505E-16   0.00000000000000E+00   0.00000000000000E+00
      0.00000000000000E+00   0.00000000000000E+00   1.43575946565158E-08   5.81674442769090E-15   1.43576004732602E-08
     -1.07961802799372E-16  -8.15000000000000E-03  -8.15000000000000E-03   0.00000000000000E+00   0.00000000000000E+00
     -1.43575822372323E-08  -3.25739163033766E-13  -1.43579079763954E-08  -1.10761961486466E-16
      2.13000000000000E-01
      0.00000000000000E+00   0.00000000000000E+00   0.00000000000000E+00   0.00000000000000E+00   0.00000000000000E+00
      0.00000000000000E+00   0.00000000000000E+00   2.18030055478157E-16   0.00000000000000E+00   0.00000000000000E+00
      0.00000000000000E+00   0.00000000000000E+00   1.68397766731006E-08  -5.96411732010972E-15   1.68397707089833E-08
     -1.07960888254371E-16  -1.06500000000000E-02  -1.06500000000000E-02   0.00000000000000E+00   0.00000000000000E+00
     -1.68397569174594E-08  -3.18551131164715E-13  -1.68400754685905E-08  -1.11703471892503E-16
      2.63000000000000E-01
      0.00000000000000E+00   0.00000000000000E+00   0.00000000000000E+00   0.00000000000000E+00   0.00000000000000E+00
      0.00000000000000E+00   0.00000000000000E+00   2.18975233729212E-16   0.00000000000000E+00   0.00000000000000E+00
      0.00000000000000E+00   0.00000000000000E+00   1.86943103780296E-08  -2.21362442970524E-14   1.86942882417853E-08
     -1.07959975011655E-16  -1.31500000000000E-02  -1.31500000000000E-02   0.00000000000000E+00   0.00000000000000E+00
     -1.86942527612676E-08  -3.37177601060098E-13  -1.86945899388687E-08  -1.12644466981202E-16
      3.13000000000000E-01
      0.00000000000000E+00   0.00000000000000E+00   0.00000000000000E+00   0.00000000000000E+00   0.00000000000000E+00
      0.00000000000000E+00   0.00000000000000E+00   2.19919705338203E-16   0.00000000000000E+00   0.00000000000000E+00
      0.00000000000000E+00   0.00000000000000E+00   2.00529221398532E-08  -2.45601892482309E-15   2.00529196838343E-08
     -1.07959063234767E-16  -1.56500000000000E-02  -1.56500000000000E-02   0.00000000000000E+00   0.00000000000000E+00
     -2.00533034598884E-08   8.51205538828797E-14  -2.00532183393345E-08  -1.13584947935901E-16
      3.63000000000000E-01
      0.00000000000000E+00   0.00000000000000E+00   0.00000000000000E+00   0.00000000000000E+00   0.00000000000000E+00
      0.00000000000000E+00   0.00000000000000E+00   2.20863479357727E-16   0.00000000000000E+00   0.00000000000000E+00
      0.00000000000000E+00   0.00000000000000E+00   2.10249356427710E-08   5.62801200667363E-14   2.10249919228911E-08
     -1.07958153057291E-16  -1.81500000000000E-02  -1.81500000000000E-02   0.00000000000000E+00   0.00000000000000E+00
     -2.10250488462764E-08  -2.40396744037849E-13  -2.10252892430204E-08  -1.14524916055731E-16
      4.13000000000000E-01
      0.00000000000000E+00   0.00000000000000E+00   0.00000000000000E+00   0.00000000000000E+00   0.00000000000000E+00
      0.00000000000000E+00   0.00000000000000E+00   2.21806564694314E-16   0.00000000000000E+00   0.00000000000000E+00
      0.00000000000000E+00   0.00000000000000E+00   2.16995808800428E-08   9.26864540395655E-14   2.16996735664969E-08
     -1.07957244552479E-16  -2.06500000000000E-02  -2.06500000000000E-02   0.00000000000000E+00   0.00000000000000E+00
     -2.16997892529860E-08  -1.77305445534922E-13  -2.16999665584316E-08  -1.15464372731711E-16
      4.63000000000000E-01
      0.00000000000000E+00   0.00000000000000E+00   0.00000000000000E+00   0.00000000000000E+00   0.00000000000000E+00
      0.00000000000000E+00   0.00000000000000E+00   2.22748970059624E-16   0.00000000000000E+00   0.00000000000000E+00
      0.00000000000000E+00   0.00000000000000E+00   2.21487186069599E-08   1.46938149747256E-13   2.21488655451096E-08
     -1.07956337771318E-16  -2.31500000000000E-02  -2.31500000000000E-02   0.00000000000000E+00   0.00000000000000E+00
     -2.21488917760767E-08  -2.60572875614514E-13  -2.21491523489523E-08  -1.16403319452102E-16
      5.13000000000000E-01
      0.00000000000000E+00   0.00000000000000E+00   0.00000000000000E+00   0.00000000000000E+00   0.00000000000000E+00
      0.00000000000000E+00   0.00000000000000E+00   2.23690703944881E-16   0.00000000000000E+00   0.00000000000000E+00
      0.00000000000000E+00   0.00000000000000E+00   2.24287971521419E-08  -1.59173753573934E-15   2.24287955604044E-08
     -1.07955432743027E-16  -2.56500000000000E-02  -2.56500000000000E-02   0.00000000000000E+00   0.00000000000000E+00
     -2.24287955764176E-08   9.71628731186263E-17  -2.24287954792547E-08  -1.17341757789104E-16
      5.63000000000000E-01
      0.00000000000000E+00   0.00000000000000E+00   0.00000000000000E+00   0.00000000000000E+00   0.00000000000000E+00
      0.00000000000000E+00   0.00000000000000E+00   2.24631774734032E-16   0.00000000000000E+00   0.00000000000000E+00
      0.00000000000000E+00   0.00000000000000E+00   2.25877963628619E-08  -3.50348714183666E-17   2.25877963278271E-08
     -1.07954529477076E-16  -2.81500000000000E-02  -2.81500000000000E-02   0.00000000000000E+00   0.00000000000000E+00
     -2.25877963303813E-08   2.38524293829128E-18  -2.25877963279961E-08  -1.18279689366498E-16
      6.13000000000000E-01
      0.00000000000000E+00   0.00000000000000E+00   0.00000000000000E+00   0.00000000000000E+00   0.00000000000000E+00
      0.00000000000000E+00   0.00000000000000E+00   2.25572190590424E-16   0.00000000000000E+00   0.00000000000000E+00
      0.00000000000000E+00   0.00000000000000E+00   2.26605699181038E-08   3.07460358872627E-17   2.26605699488499E-08
     -1.07953627963543E-16  -3.06500000000000E-02  -3.06500000000000E-02   0.00000000000000E+00   0.00000000000000E+00
     -2.26605699451943E-08  -3.39033800193546E-18  -2.26605699485847E-08  -1.19217115888571E-16
      6.63000000000000E-01
      0.00000000000000E+00   0.00000000000000E+00   0.00000000000000E+00   0.00000000000000E+00   0.00000000000000E+00
      0.00000000000000E+00   0.00000000000000E+00   2.26511959511082E-16   0.00000000000000E+00   0.00000000000000E+00
      0.00000000000000E+00   0.00000000000000E+00   2.26752602621069E-08   4.07067553092421E-17   2.26752603028137E-08
     -1.07952728183862E-16  -3.31500000000000E-02  -3.31500000000000E-02   0.00000000000000E+00   0.00000000000000E+00
     -2.26752603900462E-08   8.75972829548439E-17  -2.26752603024489E-08  -1.20154039109563E-16
      7.13000000000000E-01
      0.00000000000000E+00   0.00000000000000E+00   0.00000000000000E+00   0.00000000000000E+00   0.00000000000000E+00
      0.00000000000000E+00   0.00000000000000E+00   2.27451089315095E-16   0.00000000000000E+00   0.00000000000000E+00
      0.00000000000000E+00   0.00000000000000E+00   2.26535746567672E-08   2.24191800599772E-19   2.26535746569914E-08
     -1.07951830111833E-16  -3.56500000000000E-02  -3.56500000000000E-02   0.00000000000000E+00   0.00000000000000E+00
     -2.26535746000438E-08  -5.60360845819671E-17  -2.26535746560799E-08  -1.21090460832340E-16
      7.63000000000000E-01
      0.00000000000000E+00   0.00000000000000E+00   0.00000000000000E+00   0.00000000000000E+00   0.00000000000000E+00
      0.00000000000000E+00   0.00000000000000E+00   2.28389587642108E-16   0.00000000000000E+00   0.00000000000000E+00
      0.00000000000000E+00   0.00000000000000E+00   2.26119731850504E-08  -1.80939353512364E-17   2.26119731669564E-08
     -1.07950933716141E-16  -3.81500000000000E-02  -3.81500000000000E-02   0.00000000000000E+00   0.00000000000000E+00
     -2.26119730454357E-08  -1.18995960059489E-16  -2.26119731644317E-08  -1.22026382904639E-16
      8.13000000000000E-01
      0.00000000000000E+00   0.00000000000000E+00   0.00000000000000E+00   0.00000000000000E+00   0.00000000000000E+00
      0.00000000000000E+00   0.00000000000000E+00   2.29327461945913E-16   0.00000000000000E+00   0.00000000000000E+00
      0.00000000000000E+00   0.00000000000000E+00   2.25626501114868E-08  -4.47960126604122E-17   2.25626500666908E-08
     -1.07950038962414E-16  -4.06500000000000E-02  -4.06500000000000E-02   0.00000000000000E+00   0.00000000000000E+00
     -2.25626497868834E-08  -2.85644664970646E-16  -2.25626500725280E-08  -1.22961807212351E-16
      8.63000000000000E-01
      0.00000000000000E+00   0.00000000000000E+00   0.00000000000000E+00   0.00000000000000E+00   0.00000000000000E+00
      0.00000000000000E+00   0.00000000000000E+00   2.30264719490382E-16   0.00000000000000E+00   0.00000000000000E+00
      0.00000000000000E+00   0.00000000000000E+00   2.25143528319099E-08  -3.95866474119878E-17   2.25143527923233E-08
     -1.07949145814863E-16  -4.31500000000000E-02  -4.31500000000000E-02   0.00000000000000E+00   0.00000000000000E+00
     -2.25143525139831E-08  -2.74598064290036E-16  -2.25143527885812E-08  -1.23896735676042E-16
      9.13000000000000E-01
      0.00000000000000E+00   0.00000000000000E+00   0.00000000000000E+00   0.00000000000000E+00   0.00000000000000E+00
      0.00000000000000E+00   0.00000000000000E+00   2.31201367344845E-16   0.00000000000000E+00   0.00000000000000E+00
      0.00000000000000E+00   0.00000000000000E+00   2.24730732034939E-08  -2.75401709236473E-17   2.24730731759537E-08
     -1.07948254237425E-16  -4.56500000000000E-02  -4.56500000000000E-02   0.00000000000000E+00   0.00000000000000E+00
     -2.24730731615574E-08  -1.19939674080520E-17  -2.24730731735514E-08  -1.24831170247407E-16
      9.63000000000000E-01
      0.00000000000000E+00   0.00000000000000E+00   0.00000000000000E+00   0.00000000000000E+00   0.00000000000000E+00
      0.00000000000000E+00   0.00000000000000E+00   2.32137412379312E-16   0.00000000000000E+00   0.00000000000000E+00
      0.00000000000000E+00   0.00000000000000E+00   2.24426342540106E-08  -1.24698968954598E-17   2.24426342415407E-08
     -1.07947364194743E-16  -4.81500000000000E-02  -4.81500000000000E-02   0.00000000000000E+00   0.00000000000000E+00
     -2.24426341289771E-08  -1.08417209359067E-16  -2.24426342373943E-08  -1.25765112904996E-16
      1.00000000000000E+00
      0.00000000000000E+00   0.00000000000000E+00   0.00000000000000E+00   0.00000000000000E+00   0.00000000000000E+00
      0.00000000000000E+00   0.00000000000000E+00   2.32829701539935E-16   0.00000000000000E+00   0.00000000000000E+00
      0.00000000000000E+00   0.00000000000000E+00   2.24284053253314E-08  -4.22497593742664E-17   2.24284052830816E-08
     -1.07946706531147E-16  -5.00000000000000E-02  -5.00000000000000E-02   0.00000000000000E+00   0.00000000000000E+00
     -2.24284051173029E-08  -1.64607900679014E-16  -2.24284052819108E-08  -1.26455914955820E-16
}
