DF-ISE text

Info {
  version   = 1.0
  type      = xyplot
  datasets  = [
    "time"
    "gate OuterVoltage" "gate InnerVoltage" "gate QuasiFermiPotential" "gate DisplacementCurrent" "gate eCurrent"
    "gate hCurrent" "gate TotalCurrent" "gate Charge" "source OuterVoltage" "source InnerVoltage"
    "source QuasiFermiPotential" "source DisplacementCurrent" "source eCurrent" "source hCurrent" "source TotalCurrent"
    "source Charge" "drain OuterVoltage" "drain InnerVoltage" "drain QuasiFermiPotential" "drain DisplacementCurrent"
    "drain eCurrent" "drain hCurrent" "drain TotalCurrent" "drain Charge" ]
  functions = [
    Time
    OuterVoltage InnerVoltage QuasiFermiPotential DisplacementCurrent eCurrent
    hCurrent TotalCurrent Charge OuterVoltage InnerVoltage
    QuasiFermiPotential DisplacementCurrent eCurrent hCurrent TotalCurrent
    Charge OuterVoltage InnerVoltage QuasiFermiPotential DisplacementCurrent
    eCurrent hCurrent TotalCurrent Charge ]
}

Data {
      0.00000000000000E+00
      0.00000000000000E+00   0.00000000000000E+00   0.00000000000000E+00   0.00000000000000E+00   0.00000000000000E+00
      0.00000000000000E+00   0.00000000000000E+00   2.19966009358064E-16   0.00000000000000E+00   0.00000000000000E+00
      0.00000000000000E+00   0.00000000000000E+00   2.85692658136313E-18  -3.44243358524096E-18  -5.85507003877834E-19
     -1.10609806368168E-16   0.00000000000000E+00   0.00000000000000E+00   0.00000000000000E+00   0.00000000000000E+00
      4.32235532874193E-19  -4.48046985365388E-19  -1.58114524911945E-20  -1.10551577306656E-16
      0.00000000000000E+00
      0.00000000000000E+00   0.00000000000000E+00   0.00000000000000E+00   0.00000000000000E+00   0.00000000000000E+00
      0.00000000000000E+00   0.00000000000000E+00   2.19965965889889E-16   0.00000000000000E+00   0.00000000000000E+00
      0.00000000000000E+00   0.00000000000000E+00   4.00094638896173E-18  -2.31292325049444E-17  -1.91282861159827E-17
     -1.10609784511322E-16   0.00000000000000E+00   0.00000000000000E+00   0.00000000000000E+00   0.00000000000000E+00
     -2.97426629408024E-17   2.82167490867205E-17  -1.52591385408185E-18  -1.10551555750047E-16
      0.00000000000000E+00
      0.00000000000000E+00   0.00000000000000E+00   0.00000000000000E+00   0.00000000000000E+00   0.00000000000000E+00
      0.00000000000000E+00   0.00000000000000E+00   2.19965965889842E-16   0.00000000000000E+00   0.00000000000000E+00
      0.00000000000000E+00   0.00000000000000E+00   9.14234392905867E-18  -9.12442072035546E-18   1.79232087032087E-20
     -1.10609784511298E-16   0.00000000000000E+00   0.00000000000000E+00   0.00000000000000E+00   0.00000000000000E+00
      8.01682202145739E-18  -8.01570087507547E-18   1.12114638192186E-21  -1.10551555750024E-16
      1.00000000000000E-03
      0.00000000000000E+00   0.00000000000000E+00   0.00000000000000E+00   0.00000000000000E+00   0.00000000000000E+00
      0.00000000000000E+00   0.00000000000000E+00   2.20305946014060E-16   0.00000000000000E+00   0.00000000000000E+00
      0.00000000000000E+00   0.00000000000000E+00   1.21024277410478E-09  -1.11252996070465E-15   1.21024166157481E-09
     -1.10609534199241E-16  -8.50000000000000E-04  -8.50000000000000E-04   0.00000000000000E+00   0.00000000000000E+00
     -1.21024170258245E-09   1.83227328670952E-13  -1.21005847525378E-09  -1.10891425867877E-16
      2.86666666666667E-03
      0.00000000000000E+00   0.00000000000000E+00   0.00000000000000E+00   0.00000000000000E+00   0.00000000000000E+00
      0.00000000000000E+00   0.00000000000000E+00   2.20940289163813E-16   0.00000000000000E+00   0.00000000000000E+00
      0.00000000000000E+00   0.00000000000000E+00   3.29226620444594E-09  -3.64049118670160E-15   3.29226256395476E-09
     -1.10609067410272E-16  -2.43666666666667E-03  -2.43666666666667E-03   0.00000000000000E+00   0.00000000000000E+00
     -3.29226113526397E-09  -3.82278956800731E-15  -3.29226495805354E-09  -1.11525587375135E-16
      6.60000000000000E-03
      0.00000000000000E+00   0.00000000000000E+00   0.00000000000000E+00   0.00000000000000E+00   0.00000000000000E+00
      0.00000000000000E+00   0.00000000000000E+00   2.22207872875960E-16   0.00000000000000E+00   0.00000000000000E+00
      0.00000000000000E+00   0.00000000000000E+00   6.84151811788413E-09  -2.09478290420040E-14   6.84149717005509E-09
     -1.10608135664515E-16  -5.61000000000000E-03  -5.61000000000000E-03   0.00000000000000E+00   0.00000000000000E+00
     -6.84152612017735E-09  -2.82679071654170E-15  -6.84152894696806E-09  -1.12792895805865E-16
      1.40666666666667E-02
      0.00000000000000E+00   0.00000000000000E+00   0.00000000000000E+00   0.00000000000000E+00   0.00000000000000E+00
      0.00000000000000E+00   0.00000000000000E+00   2.24738757363543E-16   0.00000000000000E+00   0.00000000000000E+00
      0.00000000000000E+00   0.00000000000000E+00   1.19861405622534E-08   2.37395273482794E-16   1.19861407996487E-08
     -1.10606279615211E-16  -1.19566666666667E-02  -1.19566666666667E-02   0.00000000000000E+00   0.00000000000000E+00
     -1.19861421132471E-08   1.33069271729752E-15  -1.19861407825544E-08  -1.15323547737587E-16
      2.80044444444444E-02
      0.00000000000000E+00   0.00000000000000E+00   0.00000000000000E+00   0.00000000000000E+00   0.00000000000000E+00
      0.00000000000000E+00   0.00000000000000E+00   2.29448632237129E-16   0.00000000000000E+00   0.00000000000000E+00
      0.00000000000000E+00   0.00000000000000E+00   1.71151539196978E-08  -1.26154647384223E-15   1.71151526581514E-08
     -1.10602841152626E-16  -2.38037777777778E-02  -2.38037777777778E-02   0.00000000000000E+00   0.00000000000000E+00
     -1.71151540963784E-08   3.39105083404234E-15  -1.71151507053275E-08  -1.20033919945162E-16
      5.40216296296296E-02
      0.00000000000000E+00   0.00000000000000E+00   0.00000000000000E+00   0.00000000000000E+00   0.00000000000000E+00
      0.00000000000000E+00   0.00000000000000E+00   2.38195117275829E-16   0.00000000000000E+00   0.00000000000000E+00
      0.00000000000000E+00   0.00000000000000E+00   2.00279084289571E-08   2.75784958980650E-17   2.00279084565356E-08
     -1.10596504422353E-16  -4.59183851851852E-02  -4.59183851851852E-02   0.00000000000000E+00   0.00000000000000E+00
     -2.00279084575499E-08   1.02082097543718E-18  -2.00279084565290E-08  -1.28783549658265E-16
      9.56491259259259E-02
      0.00000000000000E+00   0.00000000000000E+00   0.00000000000000E+00   0.00000000000000E+00   0.00000000000000E+00
      0.00000000000000E+00   0.00000000000000E+00   2.52086958068418E-16   0.00000000000000E+00   0.00000000000000E+00
      0.00000000000000E+00   0.00000000000000E+00   2.10942979136761E-08  -4.14203150404941E-14   2.10942564933610E-08
     -1.10586537846376E-16  -8.13017570370370E-02  -8.13017570370370E-02   0.00000000000000E+00   0.00000000000000E+00
     -2.10942579870034E-08   1.72420976549168E-15  -2.10942562627936E-08  -1.42683414890355E-16
      1.45649125925926E-01
      0.00000000000000E+00   0.00000000000000E+00   0.00000000000000E+00   0.00000000000000E+00   0.00000000000000E+00
      0.00000000000000E+00   0.00000000000000E+00   2.68642816005704E-16   0.00000000000000E+00   0.00000000000000E+00
      0.00000000000000E+00   0.00000000000000E+00   2.20800250280986E-08   1.06857006623267E-17   2.20800250387843E-08
     -1.10574765292735E-16  -1.23801757037037E-01  -1.23801757037037E-01   0.00000000000000E+00   0.00000000000000E+00
     -2.20800250502940E-08   1.15121260885269E-17  -2.20800250387818E-08  -1.59250543088603E-16
      1.95649125925926E-01
      0.00000000000000E+00   0.00000000000000E+00   0.00000000000000E+00   0.00000000000000E+00   0.00000000000000E+00
      0.00000000000000E+00   0.00000000000000E+00   2.85090858817663E-16   0.00000000000000E+00   0.00000000000000E+00
      0.00000000000000E+00   0.00000000000000E+00   2.30362592509941E-08   1.12715889083928E-17   2.30362592622657E-08
     -1.10563141495228E-16  -1.66301757037037E-01  -1.66301757037037E-01   0.00000000000000E+00   0.00000000000000E+00
     -2.30362592354808E-08  -2.68079269897733E-17  -2.30362592622887E-08  -1.75710271134321E-16
      2.45649125925926E-01
      0.00000000000000E+00   0.00000000000000E+00   0.00000000000000E+00   0.00000000000000E+00   0.00000000000000E+00
      0.00000000000000E+00   0.00000000000000E+00   3.01454156179472E-16   0.00000000000000E+00   0.00000000000000E+00
      0.00000000000000E+00   0.00000000000000E+00   2.39724446346477E-08  -5.01805611104166E-18   2.39724446296296E-08
     -1.10551620228115E-16  -2.08801757037037E-01  -2.08801757037037E-01   0.00000000000000E+00   0.00000000000000E+00
     -2.39724446207384E-08  -8.91711410271113E-18  -2.39724446296555E-08  -1.92085288234791E-16
      2.95649125925926E-01
      0.00000000000000E+00   0.00000000000000E+00   0.00000000000000E+00   0.00000000000000E+00   0.00000000000000E+00
      0.00000000000000E+00   0.00000000000000E+00   3.17746099477780E-16   0.00000000000000E+00   0.00000000000000E+00
      0.00000000000000E+00   0.00000000000000E+00   2.48929456229104E-08  -2.51360950737362E-17   2.48929455977743E-08
     -1.10540173311510E-16  -2.51301757037037E-01  -2.51301757037037E-01   0.00000000000000E+00   0.00000000000000E+00
     -2.48929455822880E-08  -1.54844777118806E-17  -2.48929455977725E-08  -2.08388909772557E-16
      3.45649125925926E-01
      0.00000000000000E+00   0.00000000000000E+00   0.00000000000000E+00   0.00000000000000E+00   0.00000000000000E+00
      0.00000000000000E+00   0.00000000000000E+00   3.33973740581833E-16   0.00000000000000E+00   0.00000000000000E+00
      0.00000000000000E+00   0.00000000000000E+00   2.58014059510383E-08  -2.68385741859218E-17   2.58014059241997E-08
     -1.10528784498347E-16  -2.93801757037037E-01  -2.93801757037037E-01   0.00000000000000E+00   0.00000000000000E+00
     -2.58014059454260E-08   2.12250850831682E-17  -2.58014059242009E-08  -2.24628170558509E-16
      3.95649125925926E-01
      0.00000000000000E+00   0.00000000000000E+00   0.00000000000000E+00   0.00000000000000E+00   0.00000000000000E+00
      0.00000000000000E+00   0.00000000000000E+00   3.50140202065667E-16   0.00000000000000E+00   0.00000000000000E+00
      0.00000000000000E+00   0.00000000000000E+00   2.67005436827979E-08   6.26406305870745E-18   2.67005436890620E-08
     -1.10517445104757E-16  -3.36301757037037E-01  -3.36301757037037E-01   0.00000000000000E+00   0.00000000000000E+00
     -2.67005437501089E-08   6.10327378286411E-17  -2.67005436890762E-08  -2.40806178070940E-16
      4.45649125925926E-01
      0.00000000000000E+00   0.00000000000000E+00   0.00000000000000E+00   0.00000000000000E+00   0.00000000000000E+00
      0.00000000000000E+00   0.00000000000000E+00   3.66246253981080E-16   0.00000000000000E+00   0.00000000000000E+00
      0.00000000000000E+00   0.00000000000000E+00   2.75920830725395E-08   2.81495133290619E-16   2.75920833540346E-08
     -1.10506151186505E-16  -3.78801757037037E-01  -3.78801757037037E-01   0.00000000000000E+00   0.00000000000000E+00
     -2.75920832066805E-08  -1.43520431797257E-16  -2.75920833502009E-08  -2.56923712247533E-16
      4.95649125925926E-01
      0.00000000000000E+00   0.00000000000000E+00   0.00000000000000E+00   0.00000000000000E+00   0.00000000000000E+00
      0.00000000000000E+00   0.00000000000000E+00   3.82291322649203E-16   0.00000000000000E+00   0.00000000000000E+00
      0.00000000000000E+00   0.00000000000000E+00   2.84772174584679E-08  -3.30271602055549E-15   2.84772141557519E-08
     -1.10494901668462E-16  -4.21301757037037E-01  -4.21301757037037E-01   0.00000000000000E+00   0.00000000000000E+00
     -2.84772176305611E-08   3.50453788800187E-15  -2.84772141260232E-08  -2.72980217164851E-16
      5.45649125925926E-01
      0.00000000000000E+00   0.00000000000000E+00   0.00000000000000E+00   0.00000000000000E+00   0.00000000000000E+00
      0.00000000000000E+00   0.00000000000000E+00   3.98274110510402E-16   0.00000000000000E+00   0.00000000000000E+00
      0.00000000000000E+00   0.00000000000000E+00   2.93568628157838E-08  -9.29049179312283E-16   2.93568618867347E-08
     -1.10483697179702E-16  -4.63801757037037E-01  -4.63801757037037E-01   0.00000000000000E+00   0.00000000000000E+00
     -2.93568626641238E-08   7.85728580223091E-16  -2.93568618783953E-08  -2.88974398746421E-16
      5.95649125925926E-01
      0.00000000000000E+00   0.00000000000000E+00   0.00000000000000E+00   0.00000000000000E+00   0.00000000000000E+00
      0.00000000000000E+00   0.00000000000000E+00   4.14192956401447E-16   0.00000000000000E+00   0.00000000000000E+00
      0.00000000000000E+00   0.00000000000000E+00   3.02317416247499E-08  -6.93172840609643E-16   3.02317409315770E-08
     -1.10472539393693E-16  -5.06301757037037E-01  -5.06301757037037E-01   0.00000000000000E+00   0.00000000000000E+00
     -3.02317376131552E-08  -3.30639103779563E-15  -3.02317409195463E-08  -3.04904593939580E-16
      6.45649125925926E-01
      0.00000000000000E+00   0.00000000000000E+00   0.00000000000000E+00   0.00000000000000E+00   0.00000000000000E+00
      0.00000000000000E+00   0.00000000000000E+00   4.30046046870663E-16   0.00000000000000E+00   0.00000000000000E+00
      0.00000000000000E+00   0.00000000000000E+00   3.11023903332982E-08   1.94114127628063E-16   3.11023905274123E-08
     -1.10461430636954E-16  -5.48801757037037E-01  -5.48801757037037E-01   0.00000000000000E+00   0.00000000000000E+00
     -3.11023868195706E-08  -3.70253018104633E-15  -3.11023905221008E-08  -3.20768986228049E-16
      6.95649125925926E-01
      0.00000000000000E+00   0.00000000000000E+00   0.00000000000000E+00   0.00000000000000E+00   0.00000000000000E+00
      0.00000000000000E+00   0.00000000000000E+00   4.45831535925046E-16   0.00000000000000E+00   0.00000000000000E+00
      0.00000000000000E+00   0.00000000000000E+00   3.19692090988209E-08  -7.02040042888127E-18   3.19692090918005E-08
     -1.10450373656780E-16  -5.91301757037037E-01  -5.91301757037037E-01   0.00000000000000E+00   0.00000000000000E+00
     -3.19692090873724E-08  -4.43927159101761E-18  -3.19692090918117E-08  -3.36565726114108E-16
      7.45649125925926E-01
      0.00000000000000E+00   0.00000000000000E+00   0.00000000000000E+00   0.00000000000000E+00   0.00000000000000E+00
      0.00000000000000E+00   0.00000000000000E+00   4.61547606506729E-16   0.00000000000000E+00   0.00000000000000E+00
      0.00000000000000E+00   0.00000000000000E+00   3.28324813190076E-08  -2.67273860393230E-16   3.28324810517337E-08
     -1.10439371484464E-16  -6.33801757037037E-01  -6.33801757037037E-01   0.00000000000000E+00   0.00000000000000E+00
     -3.28324793226917E-08  -1.72757460945307E-15  -3.28324810502664E-08  -3.52292992616205E-16
      7.95649125925926E-01
      0.00000000000000E+00   0.00000000000000E+00   0.00000000000000E+00   0.00000000000000E+00   0.00000000000000E+00
      0.00000000000000E+00   0.00000000000000E+00   4.77192493593363E-16   0.00000000000000E+00   0.00000000000000E+00
      0.00000000000000E+00   0.00000000000000E+00   3.36923966330861E-08  -1.36567299576312E-16   3.36923964965188E-08
     -1.10428427361182E-16  -6.76301757037037E-01  -6.76301757037037E-01   0.00000000000000E+00   0.00000000000000E+00
     -3.36923934729895E-08  -3.02315141172872E-15  -3.36923964961409E-08  -3.67949016279893E-16
      8.45649125925926E-01
      0.00000000000000E+00   0.00000000000000E+00   0.00000000000000E+00   0.00000000000000E+00   0.00000000000000E+00
      0.00000000000000E+00   0.00000000000000E+00   4.92764479681845E-16   0.00000000000000E+00   0.00000000000000E+00
      0.00000000000000E+00   0.00000000000000E+00   3.45490638463054E-08  -1.77340073939333E-17   3.45490638285714E-08
     -1.10417544730913E-16  -7.18801757037037E-01  -7.18801757037037E-01   0.00000000000000E+00   0.00000000000000E+00
     -3.45490638931023E-08   6.45274376982091E-17  -3.45490638285748E-08  -3.83532074901109E-16
      8.95649125925926E-01
      0.00000000000000E+00   0.00000000000000E+00   0.00000000000000E+00   0.00000000000000E+00   0.00000000000000E+00
      0.00000000000000E+00   0.00000000000000E+00   5.08261868266145E-16   0.00000000000000E+00   0.00000000000000E+00
      0.00000000000000E+00   0.00000000000000E+00   3.54025140025263E-08   1.86978877976816E-17   3.54025140212242E-08
     -1.10406727340298E-16  -7.61301757037037E-01  -7.61301757037037E-01   0.00000000000000E+00   0.00000000000000E+00
     -3.54025141420758E-08   1.20819320008061E-16  -3.54025140212564E-08  -3.99040468242098E-16
      9.45649125925926E-01
      0.00000000000000E+00   0.00000000000000E+00   0.00000000000000E+00   0.00000000000000E+00   0.00000000000000E+00
      0.00000000000000E+00   0.00000000000000E+00   5.23682938433027E-16   0.00000000000000E+00   0.00000000000000E+00
      0.00000000000000E+00   0.00000000000000E+00   3.62526997497705E-08   3.66983111340322E-17   3.62526997864688E-08
     -1.10395979380050E-16  -8.03801757037037E-01  -8.03801757037037E-01   0.00000000000000E+00   0.00000000000000E+00
     -3.62526999581012E-08   1.71586629171140E-16  -3.62526997865146E-08  -4.14472473940844E-16
      9.95649125925926E-01
      0.00000000000000E+00   0.00000000000000E+00   0.00000000000000E+00   0.00000000000000E+00   0.00000000000000E+00
      0.00000000000000E+00   0.00000000000000E+00   5.39025883552152E-16   0.00000000000000E+00   0.00000000000000E+00
      0.00000000000000E+00   0.00000000000000E+00   3.70995034191010E-08  -2.73208935673114E-18   3.70995034163689E-08
     -1.10385305388126E-16  -8.46301757037037E-01  -8.46301757037037E-01   0.00000000000000E+00   0.00000000000000E+00
     -3.70995037345890E-08   3.18209777165431E-16  -3.70995034163792E-08  -4.29826283850392E-16
      1.00000000000000E+00
      0.00000000000000E+00   0.00000000000000E+00   0.00000000000000E+00   0.00000000000000E+00   0.00000000000000E+00
      0.00000000000000E+00   0.00000000000000E+00   5.40357229838275E-16   0.00000000000000E+00   0.00000000000000E+00
      0.00000000000000E+00   0.00000000000000E+00   3.71730247888406E-08  -4.16484964812611E-17   3.71730247471921E-08
     -1.10384380216682E-16  -8.50000000000000E-01  -8.50000000000000E-01   0.00000000000000E+00   0.00000000000000E+00
     -3.71730245676725E-08  -1.79500406382656E-16  -3.71730247471729E-08  -4.31158572085105E-16
}
