DF-ISE text

Info {
  version   = 1.0
  type      = xyplot
  datasets  = [
    "time"
    "gate OuterVoltage" "gate InnerVoltage" "gate QuasiFermiPotential" "gate DisplacementCurrent" "gate eCurrent"
    "gate hCurrent" "gate TotalCurrent" "gate Charge" "source OuterVoltage" "source InnerVoltage"
    "source QuasiFermiPotential" "source DisplacementCurrent" "source eCurrent" "source hCurrent" "source TotalCurrent"
    "source Charge" "drain OuterVoltage" "drain InnerVoltage" "drain QuasiFermiPotential" "drain DisplacementCurrent"
    "drain eCurrent" "drain hCurrent" "drain TotalCurrent" "drain Charge" ]
  functions = [
    Time
    OuterVoltage InnerVoltage QuasiFermiPotential DisplacementCurrent eCurrent
    hCurrent TotalCurrent Charge OuterVoltage InnerVoltage
    QuasiFermiPotential DisplacementCurrent eCurrent hCurrent TotalCurrent
    Charge OuterVoltage InnerVoltage QuasiFermiPotential DisplacementCurrent
    eCurrent hCurrent TotalCurrent Charge ]
}

Data {
      0.00000000000000E+00
      0.00000000000000E+00   0.00000000000000E+00   0.00000000000000E+00   0.00000000000000E+00   0.00000000000000E+00
      0.00000000000000E+00   0.00000000000000E+00  -2.21652345404271E-16   0.00000000000000E+00   0.00000000000000E+00
      0.00000000000000E+00   0.00000000000000E+00   3.03417556358211E-20  -1.66872338661367E-31   3.03417556356543E-20
      1.11222881166646E-16   0.00000000000000E+00   0.00000000000000E+00   0.00000000000000E+00   0.00000000000000E+00
     -2.34096261545899E-21  -1.46910956319797E-31  -2.34096261560590E-21   1.11642192348622E-16
      0.00000000000000E+00
      0.00000000000000E+00   0.00000000000000E+00   0.00000000000000E+00   0.00000000000000E+00   0.00000000000000E+00
      0.00000000000000E+00   0.00000000000000E+00  -2.21652286732394E-16   0.00000000000000E+00   0.00000000000000E+00
      0.00000000000000E+00   0.00000000000000E+00   8.52455846072673E-17   2.00383618408414E-30   8.52455846072693E-17
      1.11222853601987E-16   0.00000000000000E+00   0.00000000000000E+00   0.00000000000000E+00   0.00000000000000E+00
      5.70094382083054E-17  -6.46089860202381E-29   5.70094382082408E-17   1.11642161240855E-16
      0.00000000000000E+00
      0.00000000000000E+00   0.00000000000000E+00   0.00000000000000E+00   0.00000000000000E+00   0.00000000000000E+00
      0.00000000000000E+00   0.00000000000000E+00  -2.21652286732325E-16   0.00000000000000E+00   0.00000000000000E+00
      0.00000000000000E+00   0.00000000000000E+00  -2.63975186294417E-20  -1.22292595105901E-33  -2.63975186294429E-20
      1.11222853601954E-16   0.00000000000000E+00   0.00000000000000E+00   0.00000000000000E+00   0.00000000000000E+00
     -3.23762730141671E-20  -1.66603158817819E-33  -3.23762730141688E-20   1.11642161240812E-16
      1.00000000000000E-03
      0.00000000000000E+00   0.00000000000000E+00   0.00000000000000E+00   0.00000000000000E+00   0.00000000000000E+00
      0.00000000000000E+00   0.00000000000000E+00  -2.21899355280182E-16   0.00000000000000E+00   0.00000000000000E+00
      0.00000000000000E+00   0.00000000000000E+00  -1.44822797916851E-09  -3.34148283882464E-27  -1.44822797916851E-09
      1.11222630283363E-16   6.50000000000000E-04   6.50000000000000E-04   0.00000000000000E+00   0.00000000000000E+00
      1.44819709655731E-09  -1.22412208320206E-26   1.44819709655731E-09   1.11889156785662E-16
      2.86666666666667E-03
      0.00000000000000E+00   0.00000000000000E+00   0.00000000000000E+00   0.00000000000000E+00   0.00000000000000E+00
      0.00000000000000E+00   0.00000000000000E+00  -2.22360418558787E-16   0.00000000000000E+00   0.00000000000000E+00
      0.00000000000000E+00   0.00000000000000E+00  -3.88337149668095E-09  -5.38810234910446E-27  -3.88337149668095E-09
      1.11222213227959E-16   1.86333333333333E-03   1.86333333333333E-03   0.00000000000000E+00   0.00000000000000E+00
      3.88337546625425E-09  -1.22431420726663E-26   3.88337546625425E-09   1.12350097149081E-16
      6.60000000000000E-03
      0.00000000000000E+00   0.00000000000000E+00   0.00000000000000E+00   0.00000000000000E+00   0.00000000000000E+00
      0.00000000000000E+00   0.00000000000000E+00  -2.23282035579643E-16   0.00000000000000E+00   0.00000000000000E+00
      0.00000000000000E+00   0.00000000000000E+00  -7.86249321757175E-09  -1.10531910742263E-26  -7.86249321757175E-09
      1.11221378656402E-16   4.29000000000000E-03   4.29000000000000E-03   0.00000000000000E+00   0.00000000000000E+00
      7.86254479374955E-09  -2.64269068603794E-26   7.86254479374955E-09   1.13271518652081E-16
      1.40666666666667E-02
      0.00000000000000E+00   0.00000000000000E+00   0.00000000000000E+00   0.00000000000000E+00   0.00000000000000E+00
      0.00000000000000E+00   0.00000000000000E+00  -2.25123259896289E-16   0.00000000000000E+00   0.00000000000000E+00
      0.00000000000000E+00   0.00000000000000E+00  -1.31951104434844E-08  -2.81884331934207E-26  -1.31951104434844E-08
      1.11219709386465E-16   9.14333333333333E-03   9.14333333333333E-03   0.00000000000000E+00   0.00000000000000E+00
      1.31951104350651E-08   1.91883042446748E-26   1.31951104350651E-08   1.15112539221135E-16
      2.80044444444444E-02
      0.00000000000000E+00   0.00000000000000E+00   0.00000000000000E+00   0.00000000000000E+00   0.00000000000000E+00
      0.00000000000000E+00   0.00000000000000E+00  -2.28553231081321E-16   0.00000000000000E+00   0.00000000000000E+00
      0.00000000000000E+00   0.00000000000000E+00  -1.78217487118482E-08   3.21782281821995E-26  -1.78217487118482E-08
      1.11216599861488E-16   1.82028888888889E-02   1.82028888888889E-02   0.00000000000000E+00   0.00000000000000E+00
      1.78217473571809E-08   5.60967298774343E-26   1.78217473571809E-08   1.18542712808223E-16
      5.40216296296296E-02
      0.00000000000000E+00   0.00000000000000E+00   0.00000000000000E+00   0.00000000000000E+00   0.00000000000000E+00
      0.00000000000000E+00   0.00000000000000E+00  -2.34932679435033E-16   0.00000000000000E+00   0.00000000000000E+00
      0.00000000000000E+00   0.00000000000000E+00  -1.98735256039215E-08  -2.39674098536413E-28  -1.98735256039215E-08
      1.11210834353417E-16   3.51140592592593E-02   3.51140592592593E-02   0.00000000000000E+00   0.00000000000000E+00
      1.98735256040216E-08   3.86747581017635E-28   1.98735256040216E-08   1.24924100496936E-16
      9.56491259259259E-02
      0.00000000000000E+00   0.00000000000000E+00   0.00000000000000E+00   0.00000000000000E+00   0.00000000000000E+00
      0.00000000000000E+00   0.00000000000000E+00  -2.45081794304226E-16   0.00000000000000E+00   0.00000000000000E+00
      0.00000000000000E+00   0.00000000000000E+00  -2.06443229290710E-08   1.30307101261966E-26  -2.06443229290710E-08
      1.11201721343658E-16   6.21719318518519E-02   6.21719318518519E-02   0.00000000000000E+00   0.00000000000000E+00
      2.06443229273561E-08   1.08163956392345E-26   2.06443229273561E-08   1.35078935038828E-16
      1.45649125925926E-01
      0.00000000000000E+00   0.00000000000000E+00   0.00000000000000E+00   0.00000000000000E+00   0.00000000000000E+00
      0.00000000000000E+00   0.00000000000000E+00  -2.57186775150319E-16   0.00000000000000E+00   0.00000000000000E+00
      0.00000000000000E+00   0.00000000000000E+00  -2.14624195410780E-08   1.22894391824360E-27  -2.14624195410780E-08
      1.11190936783141E-16   9.46719318518519E-02   9.46719318518519E-02   0.00000000000000E+00   0.00000000000000E+00
      2.14624196776116E-08   6.41287612114426E-28   2.14624196776116E-08   1.47192870123519E-16
      1.95649125925926E-01
      0.00000000000000E+00   0.00000000000000E+00   0.00000000000000E+00   0.00000000000000E+00   0.00000000000000E+00
      0.00000000000000E+00   0.00000000000000E+00  -2.69207711169324E-16   0.00000000000000E+00   0.00000000000000E+00
      0.00000000000000E+00   0.00000000000000E+00  -2.22605245817422E-08  -3.69155634454010E-25  -2.22605245817422E-08
      1.11180306908466E-16   1.27171931851852E-01   1.27171931851852E-01   0.00000000000000E+00   0.00000000000000E+00
      2.22605245904580E-08  -1.08539473188872E-25   2.22605245904580E-08   1.59223713026728E-16
      2.45649125925926E-01
      0.00000000000000E+00   0.00000000000000E+00   0.00000000000000E+00   0.00000000000000E+00   0.00000000000000E+00
      0.00000000000000E+00   0.00000000000000E+00  -2.81152336642899E-16   0.00000000000000E+00   0.00000000000000E+00
      0.00000000000000E+00   0.00000000000000E+00  -2.30419788155760E-08  -1.90849450864094E-27  -2.30419788155760E-08
      1.11169814973809E-16   1.59671931851852E-01   1.59671931851852E-01   0.00000000000000E+00   0.00000000000000E+00
      2.30419788155844E-08  -2.00352748263118E-30   2.30419788155844E-08   1.71178592445395E-16
      2.95649125925926E-01
      0.00000000000000E+00   0.00000000000000E+00   0.00000000000000E+00   0.00000000000000E+00   0.00000000000000E+00
      0.00000000000000E+00   0.00000000000000E+00  -2.93026963738264E-16   0.00000000000000E+00   0.00000000000000E+00
      0.00000000000000E+00   0.00000000000000E+00  -2.38093657996477E-08  -7.57492548878258E-29  -2.38093657996477E-08
      1.11159447783148E-16   1.92171931851852E-01   1.92171931851852E-01   0.00000000000000E+00   0.00000000000000E+00
      2.38093657996164E-08  -1.16725772102176E-29   2.38093657996164E-08   1.83063562330242E-16
      3.45649125925926E-01
      0.00000000000000E+00   0.00000000000000E+00   0.00000000000000E+00   0.00000000000000E+00   0.00000000000000E+00
      0.00000000000000E+00   0.00000000000000E+00  -3.04836861900098E-16   0.00000000000000E+00   0.00000000000000E+00
      0.00000000000000E+00   0.00000000000000E+00  -2.45647474137251E-08  -6.44021835591466E-27  -2.45647474137251E-08
      1.11149194542471E-16   2.24671931851852E-01   2.24671931851852E-01   0.00000000000000E+00   0.00000000000000E+00
      2.45647474135191E-08  -9.50207235562423E-28   2.45647474135191E-08   1.94883782380694E-16
      3.95649125925926E-01
      0.00000000000000E+00   0.00000000000000E+00   0.00000000000000E+00   0.00000000000000E+00   0.00000000000000E+00
      0.00000000000000E+00   0.00000000000000E+00  -3.16586500580398E-16   0.00000000000000E+00   0.00000000000000E+00
      0.00000000000000E+00   0.00000000000000E+00  -2.53098017520785E-08  -8.09498333975654E-29  -2.53098017520785E-08
      1.11139046221084E-16   2.57171931851852E-01   2.57171931851852E-01   0.00000000000000E+00   0.00000000000000E+00
      2.53098017520984E-08  -3.50772767410680E-29   2.53098017520984E-08   2.06643676863924E-16
      4.45649125925926E-01
      0.00000000000000E+00   0.00000000000000E+00   0.00000000000000E+00   0.00000000000000E+00   0.00000000000000E+00
      0.00000000000000E+00   0.00000000000000E+00  -3.28279716775196E-16   0.00000000000000E+00   0.00000000000000E+00
      0.00000000000000E+00   0.00000000000000E+00  -2.60459157969581E-08   1.19177802502100E-25  -2.60459157969581E-08
      1.11128995143058E-16   2.89671931851852E-01   2.89671931851852E-01   0.00000000000000E+00   0.00000000000000E+00
      2.60459134875032E-08  -5.50403804451517E-26   2.60459134875032E-08   2.18347063909277E-16
      4.95649125925926E-01
      0.00000000000000E+00   0.00000000000000E+00   0.00000000000000E+00   0.00000000000000E+00   0.00000000000000E+00
      0.00000000000000E+00   0.00000000000000E+00  -3.39919838286088E-16   0.00000000000000E+00   0.00000000000000E+00
      0.00000000000000E+00   0.00000000000000E+00  -2.67742512033797E-08  -8.23902778766363E-25  -2.67742512033797E-08
      1.11119034697060E-16   3.22171931851852E-01   3.22171931851852E-01   0.00000000000000E+00   0.00000000000000E+00
      2.67742508940668E-08  -1.90679897619169E-24   2.67742508940668E-08   2.29997253513269E-16
      5.45649125925926E-01
      0.00000000000000E+00   0.00000000000000E+00   0.00000000000000E+00   0.00000000000000E+00   0.00000000000000E+00
      0.00000000000000E+00   0.00000000000000E+00  -3.51509772282806E-16   0.00000000000000E+00   0.00000000000000E+00
      0.00000000000000E+00   0.00000000000000E+00  -2.74957906029686E-08  -2.24225887298335E-24  -2.74957906029686E-08
      1.11109159143365E-16   3.54671931851852E-01   3.54671931851852E-01   0.00000000000000E+00   0.00000000000000E+00
      2.74957801114278E-08   3.86944188577405E-24   2.74957801114278E-08   2.41597168431137E-16
      5.95649125925926E-01
      0.00000000000000E+00   0.00000000000000E+00   0.00000000000000E+00   0.00000000000000E+00   0.00000000000000E+00
      0.00000000000000E+00   0.00000000000000E+00  -3.63052079800641E-16   0.00000000000000E+00   0.00000000000000E+00
      0.00000000000000E+00   0.00000000000000E+00  -2.82113742867869E-08  -2.19365793546438E-24  -2.82113742867869E-08
      1.11099363440852E-16   3.87171931851852E-01   3.87171931851852E-01   0.00000000000000E+00   0.00000000000000E+00
      2.82108662684136E-08  -1.94378534787088E-23   2.82108662684136E-08   2.53149380483527E-16
      6.45649125925926E-01
      0.00000000000000E+00   0.00000000000000E+00   0.00000000000000E+00   0.00000000000000E+00   0.00000000000000E+00
      0.00000000000000E+00   0.00000000000000E+00  -3.74549029930411E-16   0.00000000000000E+00   0.00000000000000E+00
      0.00000000000000E+00   0.00000000000000E+00  -2.89217269749414E-08  -2.28186409582945E-26  -2.89217269749414E-08
      1.11089643131438E-16   4.19671931851852E-01   4.19671931851852E-01   0.00000000000000E+00   0.00000000000000E+00
      2.89217261514719E-08   3.18109556568720E-23   2.89217261514719E-08   2.64656162007358E-16
      6.95649125925926E-01
      0.00000000000000E+00   0.00000000000000E+00   0.00000000000000E+00   0.00000000000000E+00   0.00000000000000E+00
      0.00000000000000E+00   0.00000000000000E+00  -3.86002641792388E-16   0.00000000000000E+00   0.00000000000000E+00
      0.00000000000000E+00   0.00000000000000E+00  -2.96274769065805E-08  -1.90665354363787E-24  -2.96274769065805E-08
      1.11079994256302E-16   4.52171931851852E-01   4.52171931851852E-01   0.00000000000000E+00   0.00000000000000E+00
      2.96274768848354E-08   2.41008775499272E-21   2.96274768848378E-08   2.76119534042464E-16
      7.45649125925926E-01
      0.00000000000000E+00   0.00000000000000E+00   0.00000000000000E+00   0.00000000000000E+00   0.00000000000000E+00
      0.00000000000000E+00   0.00000000000000E+00  -3.97414723093876E-16   0.00000000000000E+00   0.00000000000000E+00
      0.00000000000000E+00   0.00000000000000E+00  -3.03291740276244E-08  -5.95592860160504E-25  -3.03291740276244E-08
      1.11070413266701E-16   4.84671931851852E-01   4.84671931851852E-01   0.00000000000000E+00   0.00000000000000E+00
      3.03291716587575E-08   8.56327942044632E-21   3.03291716587661E-08   2.87541306637822E-16
      7.95649125925926E-01
      0.00000000000000E+00   0.00000000000000E+00   0.00000000000000E+00   0.00000000000000E+00   0.00000000000000E+00
      0.00000000000000E+00   0.00000000000000E+00  -4.08786897962568E-16   0.00000000000000E+00   0.00000000000000E+00
      0.00000000000000E+00   0.00000000000000E+00  -3.10273021590071E-08  -7.51432009440706E-25  -3.10273021590071E-08
      1.11060896965496E-16   5.17171931851852E-01   5.17171931851852E-01   0.00000000000000E+00   0.00000000000000E+00
      3.10273021233089E-08  -7.47434922557898E-23   3.10273021233089E-08   2.98923105918687E-16
      8.45649125925926E-01
      0.00000000000000E+00   0.00000000000000E+00   0.00000000000000E+00   0.00000000000000E+00   0.00000000000000E+00
      0.00000000000000E+00   0.00000000000000E+00  -4.20120628907051E-16   0.00000000000000E+00   0.00000000000000E+00
      0.00000000000000E+00   0.00000000000000E+00  -3.17222890430686E-08  -8.18455473935086E-23  -3.17222890430687E-08
      1.11051442458100E-16   5.49671931851852E-01   5.49671931851852E-01   0.00000000000000E+00   0.00000000000000E+00
      3.17222678216805E-08   4.42590958683305E-20   3.17222678217247E-08   3.10266398220343E-16
      8.95649125925926E-01
      0.00000000000000E+00   0.00000000000000E+00   0.00000000000000E+00   0.00000000000000E+00   0.00000000000000E+00
      0.00000000000000E+00   0.00000000000000E+00  -4.31417237366699E-16   0.00000000000000E+00   0.00000000000000E+00
      0.00000000000000E+00   0.00000000000000E+00  -3.24145148048077E-08  -1.28720898266340E-23  -3.24145148048077E-08
      1.11042047115022E-16   5.82171931851852E-01   5.82171931851852E-01   0.00000000000000E+00   0.00000000000000E+00
      3.24145148041970E-08   1.93832343482200E-20   3.24145148042163E-08   3.21572508287241E-16
      9.45649125925926E-01
      0.00000000000000E+00   0.00000000000000E+00   0.00000000000000E+00   0.00000000000000E+00   0.00000000000000E+00
      0.00000000000000E+00   0.00000000000000E+00  -4.42677920047428E-16   0.00000000000000E+00   0.00000000000000E+00
      0.00000000000000E+00   0.00000000000000E+00  -3.31043180214282E-08  -3.70203577002377E-22  -3.31043180214286E-08
      1.11032708560492E-16   6.14671931851852E-01   6.14671931851852E-01   0.00000000000000E+00   0.00000000000000E+00
      3.31043180146819E-08   2.69314149507910E-19   3.31043180149512E-08   3.32842635475425E-16
      9.95649125925926E-01
      0.00000000000000E+00   0.00000000000000E+00   0.00000000000000E+00   0.00000000000000E+00   0.00000000000000E+00
      0.00000000000000E+00   0.00000000000000E+00  -4.53903762240167E-16   0.00000000000000E+00   0.00000000000000E+00
      0.00000000000000E+00   0.00000000000000E+00  -3.37920005002187E-08  -1.12320201804327E-22  -3.37920005002188E-08
      1.11023424666539E-16   6.47171931851852E-01   6.47171931851852E-01   0.00000000000000E+00   0.00000000000000E+00
      3.37920004827533E-08   5.05313661015815E-20   3.37920004828039E-08   3.44077868128833E-16
      1.00000000000000E+00
      0.00000000000000E+00   0.00000000000000E+00   0.00000000000000E+00   0.00000000000000E+00   0.00000000000000E+00
      0.00000000000000E+00   0.00000000000000E+00  -4.54878992148466E-16   0.00000000000000E+00   0.00000000000000E+00
      0.00000000000000E+00   0.00000000000000E+00  -3.38517497980696E-08  -1.56787828314858E-23  -3.38517497980696E-08
      1.11022619323332E-16   6.50000000000000E-01   6.50000000000000E-01   0.00000000000000E+00   0.00000000000000E+00
      3.38517497970972E-08   4.07701462043515E-21   3.38517497971013E-08   3.45053912681703E-16
}
