DF-ISE text

Info {
  version   = 1.0
  type      = xyplot
  datasets  = [
    "time"
    "gate OuterVoltage" "gate InnerVoltage" "gate QuasiFermiPotential" "gate DisplacementCurrent" "gate eCurrent"
    "gate hCurrent" "gate TotalCurrent" "gate Charge" "source OuterVoltage" "source InnerVoltage"
    "source QuasiFermiPotential" "source DisplacementCurrent" "source eCurrent" "source hCurrent" "source TotalCurrent"
    "source Charge" "drain OuterVoltage" "drain InnerVoltage" "drain QuasiFermiPotential" "drain DisplacementCurrent"
    "drain eCurrent" "drain hCurrent" "drain TotalCurrent" "drain Charge" ]
  functions = [
    Time
    OuterVoltage InnerVoltage QuasiFermiPotential DisplacementCurrent eCurrent
    hCurrent TotalCurrent Charge OuterVoltage InnerVoltage
    QuasiFermiPotential DisplacementCurrent eCurrent hCurrent TotalCurrent
    Charge OuterVoltage InnerVoltage QuasiFermiPotential DisplacementCurrent
    eCurrent hCurrent TotalCurrent Charge ]
}

Data {
      0.00000000000000E+00
      0.00000000000000E+00   0.00000000000000E+00   0.00000000000000E+00   0.00000000000000E+00   0.00000000000000E+00
      0.00000000000000E+00   0.00000000000000E+00   2.19966009358064E-16   0.00000000000000E+00   0.00000000000000E+00
      0.00000000000000E+00   0.00000000000000E+00   2.85692658136313E-18  -3.44326595177031E-18  -5.86339370407178E-19
     -1.10609806368168E-16   0.00000000000000E+00   0.00000000000000E+00   0.00000000000000E+00   0.00000000000000E+00
      4.32235532874194E-19  -4.48083029746872E-19  -1.58474968726782E-20  -1.10551577306656E-16
      0.00000000000000E+00
      0.00000000000000E+00   0.00000000000000E+00   0.00000000000000E+00   0.00000000000000E+00   0.00000000000000E+00
      0.00000000000000E+00   0.00000000000000E+00   2.19965965889889E-16   0.00000000000000E+00   0.00000000000000E+00
      0.00000000000000E+00   0.00000000000000E+00   4.00094638896173E-18  -2.31282755158785E-17  -1.91273291269168E-17
     -1.10609784511322E-16   0.00000000000000E+00   0.00000000000000E+00   0.00000000000000E+00   0.00000000000000E+00
     -2.97426629408024E-17   2.82169272488766E-17  -1.52573569192573E-18  -1.10551555750047E-16
      0.00000000000000E+00
      0.00000000000000E+00   0.00000000000000E+00   0.00000000000000E+00   0.00000000000000E+00   0.00000000000000E+00
      0.00000000000000E+00   0.00000000000000E+00   2.19965965889842E-16   0.00000000000000E+00   0.00000000000000E+00
      0.00000000000000E+00   0.00000000000000E+00   9.14234392905867E-18  -9.12534718544915E-18   1.69967436095155E-20
     -1.10609784511298E-16   0.00000000000000E+00   0.00000000000000E+00   0.00000000000000E+00   0.00000000000000E+00
      8.01682202145740E-18  -8.01434395069845E-18   2.47807075894747E-21  -1.10551555750024E-16
      1.00000000000000E-03
      0.00000000000000E+00   0.00000000000000E+00   0.00000000000000E+00   0.00000000000000E+00   0.00000000000000E+00
      0.00000000000000E+00   0.00000000000000E+00   2.20265953934223E-16   0.00000000000000E+00   0.00000000000000E+00
      0.00000000000000E+00   0.00000000000000E+00   1.07142002207322E-09  -8.08466960875010E-16   1.07141921360625E-09
     -1.10609563638852E-16  -7.50000000000000E-04  -7.50000000000000E-04   0.00000000000000E+00   0.00000000000000E+00
     -1.07141923167377E-09   1.11103847818625E-13  -1.07130812782596E-09  -1.10851446263117E-16
      2.86666666666667E-03
      0.00000000000000E+00   0.00000000000000E+00   0.00000000000000E+00   0.00000000000000E+00   0.00000000000000E+00
      0.00000000000000E+00   0.00000000000000E+00   2.20825708400120E-16   0.00000000000000E+00   0.00000000000000E+00
      0.00000000000000E+00   0.00000000000000E+00   2.93239928629233E-09  -3.69703057202205E-16   2.93239891658927E-09
     -1.10609151701343E-16  -2.15000000000000E-03  -2.15000000000000E-03   0.00000000000000E+00   0.00000000000000E+00
     -2.93240181408141E-09   1.43442475097304E-15  -2.93240037965666E-09  -1.11411037188892E-16
      6.60000000000000E-03
      0.00000000000000E+00   0.00000000000000E+00   0.00000000000000E+00   0.00000000000000E+00   0.00000000000000E+00
      0.00000000000000E+00   0.00000000000000E+00   2.21944356541520E-16   0.00000000000000E+00   0.00000000000000E+00
      0.00000000000000E+00   0.00000000000000E+00   6.16510130231739E-09  -1.33143599951174E-14   6.16508798795740E-09
     -1.10608329248630E-16  -4.95000000000000E-03  -4.95000000000000E-03   0.00000000000000E+00   0.00000000000000E+00
     -6.16510722136265E-09  -5.12894783336239E-16  -6.16510773425743E-09  -1.12529427418905E-16
      1.40666666666667E-02
      0.00000000000000E+00   0.00000000000000E+00   0.00000000000000E+00   0.00000000000000E+00   0.00000000000000E+00
      0.00000000000000E+00   0.00000000000000E+00   2.24178297604699E-16   0.00000000000000E+00   0.00000000000000E+00
      0.00000000000000E+00   0.00000000000000E+00   1.10337292019923E-08  -3.35643319413680E-16   1.10337288663489E-08
     -1.10606690128558E-16  -1.05500000000000E-02  -1.05500000000000E-02   0.00000000000000E+00   0.00000000000000E+00
     -1.10337299712508E-08   1.11161241656782E-15  -1.10337288596384E-08  -1.14763105632954E-16
      2.80044444444444E-02
      0.00000000000000E+00   0.00000000000000E+00   0.00000000000000E+00   0.00000000000000E+00   0.00000000000000E+00
      0.00000000000000E+00   0.00000000000000E+00   2.28336931699070E-16   0.00000000000000E+00   0.00000000000000E+00
      0.00000000000000E+00   0.00000000000000E+00   1.62704736455327E-08  -6.96158590008142E-16   1.62704729493741E-08
     -1.10603650959790E-16  -2.10033333333333E-02  -2.10033333333333E-02   0.00000000000000E+00   0.00000000000000E+00
     -1.62704733706201E-08   1.20987411144576E-15  -1.62704721607460E-08  -1.18922007692529E-16
      5.40216296296296E-02
      0.00000000000000E+00   0.00000000000000E+00   0.00000000000000E+00   0.00000000000000E+00   0.00000000000000E+00
      0.00000000000000E+00   0.00000000000000E+00   2.36063566500542E-16   0.00000000000000E+00   0.00000000000000E+00
      0.00000000000000E+00   0.00000000000000E+00   1.96819135582542E-08   4.97574576435785E-15   1.96819185340000E-08
     -1.10598043502002E-16  -4.05162222222222E-02  -4.05162222222222E-02   0.00000000000000E+00   0.00000000000000E+00
     -1.96819262305745E-08   6.73130134113858E-14  -1.96818589175610E-08  -1.26651034365636E-16
      1.02587041975309E-01
      0.00000000000000E+00   0.00000000000000E+00   0.00000000000000E+00   0.00000000000000E+00   0.00000000000000E+00
      0.00000000000000E+00   0.00000000000000E+00   2.50380534491626E-16   0.00000000000000E+00   0.00000000000000E+00
      0.00000000000000E+00   0.00000000000000E+00   2.09911757287911E-08   1.25629421213002E-17   2.09911757413541E-08
     -1.10587756980300E-16  -7.69402814814815E-02  -7.69402814814815E-02   0.00000000000000E+00   0.00000000000000E+00
     -2.09911757449796E-08   3.61613819502486E-18  -2.09911757413634E-08  -1.40975898306796E-16
      1.52587041975309E-01
      0.00000000000000E+00   0.00000000000000E+00   0.00000000000000E+00   0.00000000000000E+00   0.00000000000000E+00
      0.00000000000000E+00   0.00000000000000E+00   2.65006356949417E-16   0.00000000000000E+00   0.00000000000000E+00
      0.00000000000000E+00   0.00000000000000E+00   2.18657537648983E-08   7.61586802401491E-18   2.18657537725142E-08
     -1.10577343608060E-16  -1.14440281481481E-01  -1.14440281481481E-01   0.00000000000000E+00   0.00000000000000E+00
     -2.18657537889394E-08   1.64389551657053E-17  -2.18657537725005E-08  -1.55611541441879E-16
      2.02587041975309E-01
      0.00000000000000E+00   0.00000000000000E+00   0.00000000000000E+00   0.00000000000000E+00   0.00000000000000E+00
      0.00000000000000E+00   0.00000000000000E+00   2.79543179014609E-16   0.00000000000000E+00   0.00000000000000E+00
      0.00000000000000E+00   0.00000000000000E+00   2.27157430960726E-08  -9.06798954502280E-16   2.27157421892737E-08
     -1.10567056033242E-16  -1.51940281481481E-01  -1.51940281481481E-01   0.00000000000000E+00   0.00000000000000E+00
     -2.27157508187687E-08   1.17971253982628E-13  -2.27156328475148E-08  -1.70158628796961E-16
      2.52587041975309E-01
      0.00000000000000E+00   0.00000000000000E+00   0.00000000000000E+00   0.00000000000000E+00   0.00000000000000E+00
      0.00000000000000E+00   0.00000000000000E+00   2.94009097661293E-16   0.00000000000000E+00   0.00000000000000E+00
      0.00000000000000E+00   0.00000000000000E+00   2.35481146225939E-08   2.52463137291275E-17   2.35481146478402E-08
     -1.10556858331151E-16  -1.89440281481481E-01  -1.89440281481481E-01   0.00000000000000E+00   0.00000000000000E+00
     -2.35481146493562E-08   1.49439905726865E-18  -2.35481146478618E-08  -1.84634894784679E-16
      3.02587041975309E-01
      0.00000000000000E+00   0.00000000000000E+00   0.00000000000000E+00   0.00000000000000E+00   0.00000000000000E+00
      0.00000000000000E+00   0.00000000000000E+00   3.08415579472690E-16   0.00000000000000E+00   0.00000000000000E+00
      0.00000000000000E+00   0.00000000000000E+00   2.43670006474450E-08   2.94134173925679E-17   2.43670006768584E-08
     -1.10546726877649E-16  -2.26940281481481E-01  -2.26940281481481E-01   0.00000000000000E+00   0.00000000000000E+00
     -2.43670006473405E-08  -2.95213454850592E-17  -2.43670006768618E-08  -1.99051701685029E-16
      3.52587041975309E-01
      0.00000000000000E+00   0.00000000000000E+00   0.00000000000000E+00   0.00000000000000E+00   0.00000000000000E+00
      0.00000000000000E+00   0.00000000000000E+00   3.22769401803034E-16   0.00000000000000E+00   0.00000000000000E+00
      0.00000000000000E+00   0.00000000000000E+00   2.51749244778750E-08  -2.48693561705502E-18   2.51749244753881E-08
     -1.10536646872238E-16  -2.64440281481481E-01  -2.64440281481481E-01   0.00000000000000E+00   0.00000000000000E+00
     -2.51749244854942E-08   1.01084892546259E-17  -2.51749244753857E-08  -2.13415811337502E-16
      4.02587041975309E-01
      0.00000000000000E+00   0.00000000000000E+00   0.00000000000000E+00   0.00000000000000E+00   0.00000000000000E+00
      0.00000000000000E+00   0.00000000000000E+00   3.37074219256696E-16   0.00000000000000E+00   0.00000000000000E+00
      0.00000000000000E+00   0.00000000000000E+00   2.59742432522316E-08   1.14205891292456E-17   2.59742432636522E-08
     -1.10526609412644E-16  -3.01940281481481E-01  -3.01940281481481E-01   0.00000000000000E+00   0.00000000000000E+00
     -2.59742433195236E-08   5.58677136478282E-17  -2.59742432636559E-08  -2.27730866134140E-16
      4.52587041975309E-01
      0.00000000000000E+00   0.00000000000000E+00   0.00000000000000E+00   0.00000000000000E+00   0.00000000000000E+00
      0.00000000000000E+00   0.00000000000000E+00   3.51331662750286E-16   0.00000000000000E+00   0.00000000000000E+00
      0.00000000000000E+00   0.00000000000000E+00   2.67666246749952E-08   3.97650586808590E-16   2.67666250726457E-08
     -1.10516609546890E-16  -3.39440281481481E-01  -3.39440281481481E-01   0.00000000000000E+00   0.00000000000000E+00
     -2.67666259125164E-08   1.10795409152281E-15  -2.67666248045624E-08  -2.41998488573288E-16
      5.02587041975309E-01
      0.00000000000000E+00   0.00000000000000E+00   0.00000000000000E+00   0.00000000000000E+00   0.00000000000000E+00
      0.00000000000000E+00   0.00000000000000E+00   3.65542087761898E-16   0.00000000000000E+00   0.00000000000000E+00
      0.00000000000000E+00   0.00000000000000E+00   2.75531761884917E-08   4.86889746781276E-17   2.75531762371806E-08
     -1.10506644923336E-16  -3.76940281481481E-01  -3.76940281481481E-01   0.00000000000000E+00   0.00000000000000E+00
     -2.75531764264055E-08   1.89753584653874E-16  -2.75531762366519E-08  -2.56219044143039E-16
      5.52587041975309E-01
      0.00000000000000E+00   0.00000000000000E+00   0.00000000000000E+00   0.00000000000000E+00   0.00000000000000E+00
      0.00000000000000E+00   0.00000000000000E+00   3.79705078761832E-16   0.00000000000000E+00   0.00000000000000E+00
      0.00000000000000E+00   0.00000000000000E+00   2.83347071268143E-08  -1.53477634194261E-15   2.83347055920379E-08
     -1.10496714847201E-16  -4.14440281481481E-01  -4.14440281481481E-01   0.00000000000000E+00   0.00000000000000E+00
     -2.83347074216404E-08   1.84507392742990E-15  -2.83347055765665E-08  -2.70392129799568E-16
      6.02587041975309E-01
      0.00000000000000E+00   0.00000000000000E+00   0.00000000000000E+00   0.00000000000000E+00   0.00000000000000E+00
      0.00000000000000E+00   0.00000000000000E+00   3.93819774790502E-16   0.00000000000000E+00   0.00000000000000E+00
      0.00000000000000E+00   0.00000000000000E+00   2.91118650174778E-08  -3.12711005534169E-16   2.91118647047668E-08
     -1.10486819668229E-16  -4.51940281481481E-01  -4.51940281481481E-01   0.00000000000000E+00   0.00000000000000E+00
     -2.91118643812604E-08  -3.21048268061011E-16  -2.91118647023087E-08  -2.84516887465503E-16
      6.52587041975309E-01
      0.00000000000000E+00   0.00000000000000E+00   0.00000000000000E+00   0.00000000000000E+00   0.00000000000000E+00
      0.00000000000000E+00   0.00000000000000E+00   4.07885070066466E-16   0.00000000000000E+00   0.00000000000000E+00
      0.00000000000000E+00   0.00000000000000E+00   2.98851744771441E-08  -8.86164151719183E-16   2.98851735909799E-08
     -1.10476960414097E-16  -4.89440281481482E-01  -4.89440281481482E-01   0.00000000000000E+00   0.00000000000000E+00
     -2.98851736142166E-08   2.90862951202558E-17  -2.98851735851303E-08  -2.98592210375056E-16
      7.02587041975309E-01
      0.00000000000000E+00   0.00000000000000E+00   0.00000000000000E+00   0.00000000000000E+00   0.00000000000000E+00
      0.00000000000000E+00   0.00000000000000E+00   4.21899739736624E-16   0.00000000000000E+00   0.00000000000000E+00
      0.00000000000000E+00   0.00000000000000E+00   3.06550402730158E-08  -5.00013532473284E-16   3.06550397730023E-08
     -1.10467138558745E-16  -5.26940281481482E-01  -5.26940281481482E-01   0.00000000000000E+00   0.00000000000000E+00
     -3.06550387097696E-08  -1.05967603008751E-15  -3.06550397694456E-08  -3.12616871716181E-16
      7.52587041975309E-01
      0.00000000000000E+00   0.00000000000000E+00   0.00000000000000E+00   0.00000000000000E+00   0.00000000000000E+00
      0.00000000000000E+00   0.00000000000000E+00   4.35862517064376E-16   0.00000000000000E+00   0.00000000000000E+00
      0.00000000000000E+00   0.00000000000000E+00   3.14217777095812E-08   1.24605205996978E-16   3.14217778341864E-08
     -1.10457355875781E-16  -5.64440281481482E-01  -5.64440281481482E-01   0.00000000000000E+00   0.00000000000000E+00
     -3.14217748996003E-08  -2.93315029190363E-15  -3.14217778327505E-08  -3.26589602464023E-16
      8.02587041975309E-01
      0.00000000000000E+00   0.00000000000000E+00   0.00000000000000E+00   0.00000000000000E+00   0.00000000000000E+00
      0.00000000000000E+00   0.00000000000000E+00   4.49772138235024E-16   0.00000000000000E+00   0.00000000000000E+00
      0.00000000000000E+00   0.00000000000000E+00   3.21856254776773E-08   1.68278329468981E-16   3.21856256459556E-08
     -1.10447614346482E-16  -6.01940281481482E-01  -6.01940281481482E-01   0.00000000000000E+00   0.00000000000000E+00
     -3.21856231616367E-08  -2.48343220830213E-15  -3.21856256450689E-08  -3.40509136283654E-16
      8.52587041975309E-01
      0.00000000000000E+00   0.00000000000000E+00   0.00000000000000E+00   0.00000000000000E+00   0.00000000000000E+00
      0.00000000000000E+00   0.00000000000000E+00   4.63627365126393E-16   0.00000000000000E+00   0.00000000000000E+00
      0.00000000000000E+00   0.00000000000000E+00   3.29467574809024E-08  -4.75967309989001E-16   3.29467570049351E-08
     -1.10437916102463E-16  -6.39440281481482E-01  -6.39440281481482E-01   0.00000000000000E+00   0.00000000000000E+00
     -3.29467553414098E-08  -1.66318714120496E-15  -3.29467570045969E-08  -3.54374232254835E-16
      9.02587041975309E-01
      0.00000000000000E+00   0.00000000000000E+00   0.00000000000000E+00   0.00000000000000E+00   0.00000000000000E+00
      0.00000000000000E+00   0.00000000000000E+00   4.77426992406828E-16   0.00000000000000E+00   0.00000000000000E+00
      0.00000000000000E+00   0.00000000000000E+00   3.37052911554828E-08  -1.39734156057432E-16   3.37052910157486E-08
     -1.10428263395483E-16  -6.76940281481482E-01  -6.76940281481482E-01   0.00000000000000E+00   0.00000000000000E+00
     -3.37052895548576E-08  -1.46085819344179E-15  -3.37052910157158E-08  -3.68183681933634E-16
      9.52587041975309E-01
      0.00000000000000E+00   0.00000000000000E+00   0.00000000000000E+00   0.00000000000000E+00   0.00000000000000E+00
      0.00000000000000E+00   0.00000000000000E+00   4.91169842637821E-16   0.00000000000000E+00   0.00000000000000E+00
      0.00000000000000E+00   0.00000000000000E+00   3.44612989938675E-08  -8.67003265150668E-16   3.44612981268643E-08
     -1.10418658601234E-16  -7.14440281481482E-01  -7.14440281481482E-01   0.00000000000000E+00   0.00000000000000E+00
     -3.44613095819746E-08   1.14548339419693E-14  -3.44612981271407E-08  -3.81936304635733E-16
      1.00000000000000E+00
      0.00000000000000E+00   0.00000000000000E+00   0.00000000000000E+00   0.00000000000000E+00   0.00000000000000E+00
      0.00000000000000E+00   0.00000000000000E+00   5.04148122570272E-16   0.00000000000000E+00   0.00000000000000E+00
      0.00000000000000E+00   0.00000000000000E+00   3.51758766641601E-08   2.81015445463671E-17   3.51758766922616E-08
     -1.10409597344951E-16  -7.50000000000000E-01  -7.50000000000000E-01   0.00000000000000E+00   0.00000000000000E+00
     -3.51758767079692E-08   1.57203549398088E-17  -3.51758766922488E-08  -3.94923802853870E-16
}
