DF-ISE text

Info {
  version   = 1.0
  type      = xyplot
  datasets  = [
    "time"
    "gate OuterVoltage" "gate InnerVoltage" "gate QuasiFermiPotential" "gate DisplacementCurrent" "gate eCurrent"
    "gate hCurrent" "gate TotalCurrent" "gate Charge" "source OuterVoltage" "source InnerVoltage"
    "source QuasiFermiPotential" "source DisplacementCurrent" "source eCurrent" "source hCurrent" "source TotalCurrent"
    "source Charge" "drain OuterVoltage" "drain InnerVoltage" "drain QuasiFermiPotential" "drain DisplacementCurrent"
    "drain eCurrent" "drain hCurrent" "drain TotalCurrent" "drain Charge" ]
  functions = [
    Time
    OuterVoltage InnerVoltage QuasiFermiPotential DisplacementCurrent eCurrent
    hCurrent TotalCurrent Charge OuterVoltage InnerVoltage
    QuasiFermiPotential DisplacementCurrent eCurrent hCurrent TotalCurrent
    Charge OuterVoltage InnerVoltage QuasiFermiPotential DisplacementCurrent
    eCurrent hCurrent TotalCurrent Charge ]
}

Data {
      0.00000000000000E+00
      0.00000000000000E+00   0.00000000000000E+00   0.00000000000000E+00   0.00000000000000E+00   0.00000000000000E+00
      0.00000000000000E+00   0.00000000000000E+00  -2.21652345404271E-16   0.00000000000000E+00   0.00000000000000E+00
      0.00000000000000E+00   0.00000000000000E+00  -5.04734718823947E-21  -1.67969359927341E-31  -5.04734718840744E-21
      1.11222881166646E-16   0.00000000000000E+00   0.00000000000000E+00   0.00000000000000E+00   0.00000000000000E+00
      4.56403942058171E-21  -1.50188173887743E-31   4.56403942043152E-21   1.11642192348622E-16
      0.00000000000000E+00
      0.00000000000000E+00   0.00000000000000E+00   0.00000000000000E+00   0.00000000000000E+00   0.00000000000000E+00
      0.00000000000000E+00   0.00000000000000E+00  -2.21652286732394E-16   0.00000000000000E+00   0.00000000000000E+00
      0.00000000000000E+00   0.00000000000000E+00   8.52503255992006E-17   2.00361099282597E-30   8.52503255992026E-17
      1.11222853601987E-16   0.00000000000000E+00   0.00000000000000E+00   0.00000000000000E+00   0.00000000000000E+00
      5.70030055242327E-17  -6.46094259135491E-29   5.70030055241681E-17   1.11642161240855E-16
      0.00000000000000E+00
      0.00000000000000E+00   0.00000000000000E+00   0.00000000000000E+00   0.00000000000000E+00   0.00000000000000E+00
      0.00000000000000E+00   0.00000000000000E+00  -2.21652286732325E-16   0.00000000000000E+00   0.00000000000000E+00
      0.00000000000000E+00   0.00000000000000E+00  -6.34716056834597E-20  -2.10178647167188E-33  -6.34716056834618E-20
      1.11222853601954E-16   0.00000000000000E+00   0.00000000000000E+00   0.00000000000000E+00   0.00000000000000E+00
     -3.10413899832246E-20  -1.78572879303994E-33  -3.10413899832264E-20   1.11642161240812E-16
      1.00000000000000E-03
      0.00000000000000E+00   0.00000000000000E+00   0.00000000000000E+00   0.00000000000000E+00   0.00000000000000E+00
      0.00000000000000E+00   0.00000000000000E+00  -2.21994368549966E-16   0.00000000000000E+00   0.00000000000000E+00
      0.00000000000000E+00   0.00000000000000E+00  -1.97755258141459E-09  -9.88743334124235E-27  -1.97755258141459E-09
      1.11222544370391E-16   9.00000000000000E-04   9.00000000000000E-04   0.00000000000000E+00   0.00000000000000E+00
      1.97907629080824E-09   3.64326761062241E-26   1.97907629080824E-09   1.11984143318129E-16
      2.86666666666667E-03
      0.00000000000000E+00   0.00000000000000E+00   0.00000000000000E+00   0.00000000000000E+00   0.00000000000000E+00
      0.00000000000000E+00   0.00000000000000E+00  -2.22632669876382E-16   0.00000000000000E+00   0.00000000000000E+00
      0.00000000000000E+00   0.00000000000000E+00  -5.17321266254716E-09  -2.84096230300213E-26  -5.17321266254716E-09
      1.11221966801386E-16   2.58000000000000E-03   2.58000000000000E-03   0.00000000000000E+00   0.00000000000000E+00
      5.17322613962010E-09  -8.32979641954437E-25   5.17322613962010E-09   1.12622283859071E-16
      6.60000000000000E-03
      0.00000000000000E+00   0.00000000000000E+00   0.00000000000000E+00   0.00000000000000E+00   0.00000000000000E+00
      0.00000000000000E+00   0.00000000000000E+00  -2.23908299892499E-16   0.00000000000000E+00   0.00000000000000E+00
      0.00000000000000E+00   0.00000000000000E+00  -1.00098013273737E-08  -1.03194505967306E-27  -1.00098013273737E-08
      1.11220811063468E-16   5.94000000000000E-03   5.94000000000000E-03   0.00000000000000E+00   0.00000000000000E+00
      1.00098013249403E-08   1.72716381621553E-27   1.00098013249403E-08   1.13897686635190E-16
      1.35688888888889E-02
      0.00000000000000E+00   0.00000000000000E+00   0.00000000000000E+00   0.00000000000000E+00   0.00000000000000E+00
      0.00000000000000E+00   0.00000000000000E+00  -2.26286070147230E-16   0.00000000000000E+00   0.00000000000000E+00
      0.00000000000000E+00   0.00000000000000E+00  -1.53293299135474E-08   1.83698997718583E-26  -1.53293299135474E-08
      1.11218654849442E-16   1.22120000000000E-02   1.22120000000000E-02   0.00000000000000E+00   0.00000000000000E+00
      1.53293297461195E-08   3.56197087015840E-26   1.53293297461195E-08   1.16275338713041E-16
      2.65774814814815E-02
      0.00000000000000E+00   0.00000000000000E+00   0.00000000000000E+00   0.00000000000000E+00   0.00000000000000E+00
      0.00000000000000E+00   0.00000000000000E+00  -2.30713110016536E-16   0.00000000000000E+00   0.00000000000000E+00
      0.00000000000000E+00   0.00000000000000E+00  -1.89925174433450E-08   7.80252392850735E-26  -1.89925174433450E-08
      1.11214644666212E-16   2.39197333333333E-02   2.39197333333333E-02   0.00000000000000E+00   0.00000000000000E+00
      1.89925098244234E-08   1.21906692354316E-25   1.89925098244234E-08   1.20703049328678E-16
      5.08601876543210E-02
      0.00000000000000E+00   0.00000000000000E+00   0.00000000000000E+00   0.00000000000000E+00   0.00000000000000E+00
      0.00000000000000E+00   0.00000000000000E+00  -2.38939363600606E-16   0.00000000000000E+00   0.00000000000000E+00
      0.00000000000000E+00   0.00000000000000E+00  -2.02179551640282E-08  -7.13480542239264E-27  -2.02179551640282E-08
      1.11207228278601E-16   4.57741688888889E-02   4.57741688888889E-02   0.00000000000000E+00   0.00000000000000E+00
      2.02179551639890E-08   4.13424704371906E-28   2.02179551639890E-08   1.28932750981067E-16
      8.97125175308642E-02
      0.00000000000000E+00   0.00000000000000E+00   0.00000000000000E+00   0.00000000000000E+00   0.00000000000000E+00
      0.00000000000000E+00   0.00000000000000E+00  -2.52008952349906E-16   0.00000000000000E+00   0.00000000000000E+00
      0.00000000000000E+00   0.00000000000000E+00  -2.11144348841558E-08  -8.59761280062028E-26  -2.11144348841558E-08
      1.11195539342136E-16   8.07412657777778E-02   8.07412657777778E-02   0.00000000000000E+00   0.00000000000000E+00
      2.11144349068281E-08  -5.25333770578489E-26   2.11144349068281E-08   1.42011036072799E-16
      1.39712517530864E-01
      0.00000000000000E+00   0.00000000000000E+00   0.00000000000000E+00   0.00000000000000E+00   0.00000000000000E+00
      0.00000000000000E+00   0.00000000000000E+00  -2.68680200132842E-16   0.00000000000000E+00   0.00000000000000E+00
      0.00000000000000E+00   0.00000000000000E+00  -2.22257632642286E-08  -1.95759508252109E-26  -2.22257632642286E-08
      1.11180771830689E-16   1.25741265777778E-01   1.25741265777778E-01   0.00000000000000E+00   0.00000000000000E+00
      2.22257632642322E-08  -6.37158933044730E-28   2.22257632642322E-08   1.58695755826707E-16
      1.89712517530864E-01
      0.00000000000000E+00   0.00000000000000E+00   0.00000000000000E+00   0.00000000000000E+00   0.00000000000000E+00
      0.00000000000000E+00   0.00000000000000E+00  -2.85204351084739E-16   0.00000000000000E+00   0.00000000000000E+00
      0.00000000000000E+00   0.00000000000000E+00  -2.33048138574110E-08  -5.28048054217895E-30  -2.33048138574110E-08
      1.11166270537517E-16   1.70741265777778E-01   1.70741265777778E-01   0.00000000000000E+00   0.00000000000000E+00
      2.33048138574293E-08  -1.08032712962501E-29   2.33048138574293E-08   1.75234127080805E-16
      2.14712517530864E-01
      0.00000000000000E+00   0.00000000000000E+00   0.00000000000000E+00   0.00000000000000E+00   0.00000000000000E+00
      0.00000000000000E+00   0.00000000000000E+00  -2.93416543301785E-16   0.00000000000000E+00   0.00000000000000E+00
      0.00000000000000E+00   0.00000000000000E+00  -2.38344007061809E-08  -1.44757274198984E-25  -2.38344007061809E-08
      1.11159108665775E-16   1.93241265777778E-01   1.93241265777778E-01   0.00000000000000E+00   0.00000000000000E+00
      2.38344007060920E-08  -4.04542969059892E-27   2.38344007060920E-08   1.83453482206442E-16
      2.51379184197531E-01
      0.00000000000000E+00   0.00000000000000E+00   0.00000000000000E+00   0.00000000000000E+00   0.00000000000000E+00
      0.00000000000000E+00   0.00000000000000E+00  -3.05405570594125E-16   0.00000000000000E+00   0.00000000000000E+00
      0.00000000000000E+00   0.00000000000000E+00  -2.46009491429924E-08  -7.08439952377408E-30  -2.46009491429924E-08
      1.11148702164066E-16   2.26241265777778E-01   2.26241265777778E-01   0.00000000000000E+00   0.00000000000000E+00
      2.46009491430102E-08   8.17904885624071E-31   2.46009491430102E-08   1.95452988030689E-16
      2.95379184197531E-01
      0.00000000000000E+00   0.00000000000000E+00   0.00000000000000E+00   0.00000000000000E+00   0.00000000000000E+00
      0.00000000000000E+00   0.00000000000000E+00  -3.19711023579906E-16   0.00000000000000E+00   0.00000000000000E+00
      0.00000000000000E+00   0.00000000000000E+00  -2.55069820531174E-08  -9.11745223922176E-26  -2.55069820531174E-08
      1.11136355888256E-16   2.65841265777778E-01   2.65841265777778E-01   0.00000000000000E+00   0.00000000000000E+00
      2.55069820530806E-08  -1.29136401859605E-24   2.55069820530806E-08   2.09770921748779E-16
      3.39379184197531E-01
      0.00000000000000E+00   0.00000000000000E+00   0.00000000000000E+00   0.00000000000000E+00   0.00000000000000E+00
      0.00000000000000E+00   0.00000000000000E+00  -3.33934065606316E-16   0.00000000000000E+00   0.00000000000000E+00
      0.00000000000000E+00   0.00000000000000E+00  -2.64002185918101E-08   3.34351847085343E-27  -2.64002185918101E-08
      1.11124151286777E-16   3.05441265777778E-01   3.05441265777778E-01   0.00000000000000E+00   0.00000000000000E+00
      2.64002185948283E-08  -1.02765623496718E-27   2.64002185948283E-08   2.24006310685450E-16
      3.89379184197531E-01
      0.00000000000000E+00   0.00000000000000E+00   0.00000000000000E+00   0.00000000000000E+00   0.00000000000000E+00
      0.00000000000000E+00   0.00000000000000E+00  -3.50003808155776E-16   0.00000000000000E+00   0.00000000000000E+00
      0.00000000000000E+00   0.00000000000000E+00  -2.74022186740167E-08   1.41668600201254E-25  -2.74022186740167E-08
      1.11110440064754E-16   3.50441265777778E-01   3.50441265777778E-01   0.00000000000000E+00   0.00000000000000E+00
      2.74021977812919E-08   8.07100904516019E-24   2.74021977812919E-08   2.40089909448533E-16
      4.39379184197531E-01
      0.00000000000000E+00   0.00000000000000E+00   0.00000000000000E+00   0.00000000000000E+00   0.00000000000000E+00
      0.00000000000000E+00   0.00000000000000E+00  -3.65981593912888E-16   0.00000000000000E+00   0.00000000000000E+00
      0.00000000000000E+00   0.00000000000000E+00  -2.83925870045275E-08  -1.33190385453391E-25  -2.83925870045275E-08
      1.11096883208657E-16   3.95441265777778E-01   3.95441265777778E-01   0.00000000000000E+00   0.00000000000000E+00
      2.83925828804611E-08  -6.57625383918588E-24   2.83925828804611E-08   2.56081402977930E-16
      4.89379184197531E-01
      0.00000000000000E+00   0.00000000000000E+00   0.00000000000000E+00   0.00000000000000E+00   0.00000000000000E+00
      0.00000000000000E+00   0.00000000000000E+00  -3.81873414393186E-16   0.00000000000000E+00   0.00000000000000E+00
      0.00000000000000E+00   0.00000000000000E+00  -2.93732356464611E-08  -1.82732998601133E-24  -2.93732356464611E-08
      1.11083468948916E-16   4.40441265777778E-01   4.40441265777778E-01   0.00000000000000E+00   0.00000000000000E+00
      2.93732327933831E-08   1.85823640968140E-21   2.93732327933849E-08   2.71986791831030E-16
      5.39379184197531E-01
      0.00000000000000E+00   0.00000000000000E+00   0.00000000000000E+00   0.00000000000000E+00   0.00000000000000E+00
      0.00000000000000E+00   0.00000000000000E+00  -3.97684378173385E-16   0.00000000000000E+00   0.00000000000000E+00
      0.00000000000000E+00   0.00000000000000E+00  -3.03457394464195E-08  -1.81488887791544E-25  -3.03457394464195E-08
      1.11070187263111E-16   4.85441265777778E-01   4.85441265777778E-01   0.00000000000000E+00   0.00000000000000E+00
      3.03457394422019E-08   2.31186251462838E-22   3.03457394422022E-08   2.87811190307757E-16
      5.89379184197531E-01
      0.00000000000000E+00   0.00000000000000E+00   0.00000000000000E+00   0.00000000000000E+00   0.00000000000000E+00
      0.00000000000000E+00   0.00000000000000E+00  -4.13418881110760E-16   0.00000000000000E+00   0.00000000000000E+00
      0.00000000000000E+00   0.00000000000000E+00  -3.13114132531398E-08   1.75352904295954E-25  -3.13114132531398E-08
      1.11057029501561E-16   5.30441265777778E-01   5.30441265777778E-01   0.00000000000000E+00   0.00000000000000E+00
      3.13114114208994E-08  -2.88383592884220E-21   3.13114114208965E-08   3.03559000236430E-16
      6.39379184197531E-01
      0.00000000000000E+00   0.00000000000000E+00   0.00000000000000E+00   0.00000000000000E+00   0.00000000000000E+00
      0.00000000000000E+00   0.00000000000000E+00  -4.29080726375913E-16   0.00000000000000E+00   0.00000000000000E+00
      0.00000000000000E+00   0.00000000000000E+00  -3.22713661400483E-08  -2.44261302092009E-23  -3.22713661400483E-08
      1.11043988129258E-16   5.75441265777778E-01   5.75441265777778E-01   0.00000000000000E+00   0.00000000000000E+00
      3.22713661398487E-08   3.62365735617655E-20   3.22713661398850E-08   3.19234034320321E-16
      6.89379184197531E-01
      0.00000000000000E+00   0.00000000000000E+00   0.00000000000000E+00   0.00000000000000E+00   0.00000000000000E+00
      0.00000000000000E+00   0.00000000000000E+00  -4.44673222679331E-16   0.00000000000000E+00   0.00000000000000E+00
      0.00000000000000E+00   0.00000000000000E+00  -3.32265406688472E-08  -8.36640336427571E-24  -3.32265406688472E-08
      1.11031056570810E-16   6.20441265777778E-01   6.20441265777778E-01   0.00000000000000E+00   0.00000000000000E+00
      3.32265406687497E-08   4.75919827052159E-21   3.32265406687545E-08   3.34839608951946E-16
      7.39379184197531E-01
      0.00000000000000E+00   0.00000000000000E+00   0.00000000000000E+00   0.00000000000000E+00   0.00000000000000E+00
      0.00000000000000E+00   0.00000000000000E+00  -4.60199259193169E-16   0.00000000000000E+00   0.00000000000000E+00
      0.00000000000000E+00   0.00000000000000E+00  -3.41777423541713E-08  -1.24519546476658E-22  -3.41777423541714E-08
      1.11018229116186E-16   6.65441265777778E-01   6.65441265777778E-01   0.00000000000000E+00   0.00000000000000E+00
      3.41777423505415E-08   6.25270871093366E-20   3.41777423506040E-08   3.50378620712283E-16
      7.89379184197531E-01
      0.00000000000000E+00   0.00000000000000E+00   0.00000000000000E+00   0.00000000000000E+00   0.00000000000000E+00
      0.00000000000000E+00   0.00000000000000E+00  -4.75661368388723E-16   0.00000000000000E+00   0.00000000000000E+00
      0.00000000000000E+00   0.00000000000000E+00  -3.51256726852137E-08  -2.48894048506854E-25  -3.51256726852137E-08
      1.11005500529746E-16   7.10441265777778E-01   7.10441265777778E-01   0.00000000000000E+00   0.00000000000000E+00
      3.51256726829460E-08   3.14600020187675E-21   3.51256726829491E-08   3.65853605731472E-16
      8.39379184197531E-01
      0.00000000000000E+00   0.00000000000000E+00   0.00000000000000E+00   0.00000000000000E+00   0.00000000000000E+00
      0.00000000000000E+00   0.00000000000000E+00  -4.91061773913035E-16   0.00000000000000E+00   0.00000000000000E+00
      0.00000000000000E+00   0.00000000000000E+00  -3.60709417864382E-08  -1.79183680865684E-23  -3.60709417864382E-08
      1.10992866142042E-16   7.55441265777778E-01   7.55441265777778E-01   0.00000000000000E+00   0.00000000000000E+00
      3.60709417862865E-08   2.09277532279070E-19   3.60709417864958E-08   3.81266791100214E-16
      8.89379184197531E-01
      0.00000000000000E+00   0.00000000000000E+00   0.00000000000000E+00   0.00000000000000E+00   0.00000000000000E+00
      0.00000000000000E+00   0.00000000000000E+00  -5.06402430687831E-16   0.00000000000000E+00   0.00000000000000E+00
      0.00000000000000E+00   0.00000000000000E+00  -3.70140796514338E-08  -1.06995098750937E-21  -3.70140796514348E-08
      1.10980321874659E-16   8.00441265777778E-01   8.00441265777778E-01   0.00000000000000E+00   0.00000000000000E+00
      3.70140796434220E-08   5.98986588536638E-18   3.70140796494118E-08   3.96620136883323E-16
      9.39379184197531E-01
      0.00000000000000E+00   0.00000000000000E+00   0.00000000000000E+00   0.00000000000000E+00   0.00000000000000E+00
      0.00000000000000E+00   0.00000000000000E+00  -5.21685056226447E-16   0.00000000000000E+00   0.00000000000000E+00
      0.00000000000000E+00   0.00000000000000E+00  -3.79555445113339E-08  -1.05052917514001E-21  -3.79555445113349E-08
      1.10967864261353E-16   8.45441265777778E-01   8.45441265777778E-01   0.00000000000000E+00   0.00000000000000E+00
      3.79555445049986E-08   2.60745284336388E-18   3.79555445076060E-08   4.11915368183911E-16
      9.89379184197531E-01
      0.00000000000000E+00   0.00000000000000E+00   0.00000000000000E+00   0.00000000000000E+00   0.00000000000000E+00
      0.00000000000000E+00   0.00000000000000E+00  -5.36911163583028E-16   0.00000000000000E+00   0.00000000000000E+00
      0.00000000000000E+00   0.00000000000000E+00  -3.88957571018655E-08  -4.37085494915073E-24  -3.88957571018655E-08
      1.10955489737849E-16   8.90441265777778E-01   8.90441265777778E-01   0.00000000000000E+00   0.00000000000000E+00
      3.88957571019468E-08  -7.05445805259355E-21   3.88957571019397E-08   4.27153999649320E-16
      1.00000000000000E+00
      0.00000000000000E+00   0.00000000000000E+00   0.00000000000000E+00   0.00000000000000E+00   0.00000000000000E+00
      0.00000000000000E+00   0.00000000000000E+00  -5.40138288428368E-16   0.00000000000000E+00   0.00000000000000E+00
      0.00000000000000E+00   0.00000000000000E+00  -3.90953490938685E-08  -1.06047147629275E-25  -3.90953490938685E-08
      1.10952871561813E-16   9.00000000000000E-01   9.00000000000000E-01   0.00000000000000E+00   0.00000000000000E+00
      3.90953490939418E-08   9.85587076249073E-21   3.90953490939516E-08   4.30383774333172E-16
}
