DF-ISE text

Info {
  version   = 1.0
  type      = xyplot
  datasets  = [
    "time"
    "gate OuterVoltage" "gate InnerVoltage" "gate QuasiFermiPotential" "gate DisplacementCurrent" "gate eCurrent"
    "gate hCurrent" "gate TotalCurrent" "gate Charge" "source OuterVoltage" "source InnerVoltage"
    "source QuasiFermiPotential" "source DisplacementCurrent" "source eCurrent" "source hCurrent" "source TotalCurrent"
    "source Charge" "drain OuterVoltage" "drain InnerVoltage" "drain QuasiFermiPotential" "drain DisplacementCurrent"
    "drain eCurrent" "drain hCurrent" "drain TotalCurrent" "drain Charge" ]
  functions = [
    Time
    OuterVoltage InnerVoltage QuasiFermiPotential DisplacementCurrent eCurrent
    hCurrent TotalCurrent Charge OuterVoltage InnerVoltage
    QuasiFermiPotential DisplacementCurrent eCurrent hCurrent TotalCurrent
    Charge OuterVoltage InnerVoltage QuasiFermiPotential DisplacementCurrent
    eCurrent hCurrent TotalCurrent Charge ]
}

Data {
      0.00000000000000E+00
      0.00000000000000E+00   0.00000000000000E+00   0.00000000000000E+00   0.00000000000000E+00   0.00000000000000E+00
      0.00000000000000E+00   0.00000000000000E+00   2.16641034576736E-16   0.00000000000000E+00   0.00000000000000E+00
      0.00000000000000E+00   0.00000000000000E+00  -5.71563692521952E-19  -1.67103729751188E-19  -7.38667422273140E-19
     -1.08966172977106E-16   0.00000000000000E+00   0.00000000000000E+00   0.00000000000000E+00   0.00000000000000E+00
     -1.55172345275763E-18   1.52956065296826E-18  -2.21627997893713E-20  -1.08895794406202E-16
      0.00000000000000E+00
      0.00000000000000E+00   0.00000000000000E+00   0.00000000000000E+00   0.00000000000000E+00   0.00000000000000E+00
      0.00000000000000E+00   0.00000000000000E+00   2.16641002603689E-16   0.00000000000000E+00   0.00000000000000E+00
      0.00000000000000E+00   0.00000000000000E+00  -5.59983823940211E-17   4.79235368375587E-17  -8.07484555646232E-18
     -1.08966156880934E-16   0.00000000000000E+00   0.00000000000000E+00   0.00000000000000E+00   0.00000000000000E+00
     -7.59396783382128E-17   7.51310992202641E-17  -8.08579117948768E-19  -1.08895778570325E-16
      0.00000000000000E+00
      0.00000000000000E+00   0.00000000000000E+00   0.00000000000000E+00   0.00000000000000E+00   0.00000000000000E+00
      0.00000000000000E+00   0.00000000000000E+00   2.16641002603659E-16   0.00000000000000E+00   0.00000000000000E+00
      0.00000000000000E+00   0.00000000000000E+00  -2.45712945477156E-17   2.45572634830508E-17  -1.40310646648223E-20
     -1.08966156880918E-16   0.00000000000000E+00   0.00000000000000E+00   0.00000000000000E+00   0.00000000000000E+00
     -8.28742697153334E-18   8.28683145364024E-18  -5.95517893102787E-22  -1.08895778570311E-16
      1.00000000000000E-03
      0.00000000000000E+00   0.00000000000000E+00   0.00000000000000E+00   0.00000000000000E+00   0.00000000000000E+00
      0.00000000000000E+00   0.00000000000000E+00   2.16976885668701E-16   0.00000000000000E+00   0.00000000000000E+00
      0.00000000000000E+00   0.00000000000000E+00   1.71997883678301E-09  -3.24920334734023E-17   1.71997880429098E-09
     -1.08965619621563E-16  -8.50000000000000E-04  -8.50000000000000E-04   0.00000000000000E+00   0.00000000000000E+00
     -1.71997991032347E-09   2.08622049988435E-13  -1.71977128827348E-09  -1.09231702510346E-16
      2.86666666666667E-03
      0.00000000000000E+00   0.00000000000000E+00   0.00000000000000E+00   0.00000000000000E+00   0.00000000000000E+00
      0.00000000000000E+00   0.00000000000000E+00   2.17603584853939E-16   0.00000000000000E+00   0.00000000000000E+00
      0.00000000000000E+00   0.00000000000000E+00   4.68152400536892E-09  -1.35985033465013E-15   4.68152264551858E-09
     -1.08964617944839E-16  -2.43666666666667E-03  -2.43666666666667E-03   0.00000000000000E+00   0.00000000000000E+00
     -4.68152652337214E-09   5.66781311193715E-16  -4.68152595659083E-09  -1.09858508924007E-16
      6.60000000000000E-03
      0.00000000000000E+00   0.00000000000000E+00   0.00000000000000E+00   0.00000000000000E+00   0.00000000000000E+00
      0.00000000000000E+00   0.00000000000000E+00   2.18855895058366E-16   0.00000000000000E+00   0.00000000000000E+00
      0.00000000000000E+00   0.00000000000000E+00   9.73944918594330E-09  -3.16210108523420E-14   9.73941756493244E-09
     -1.08962619285468E-16  -5.61000000000000E-03  -5.61000000000000E-03   0.00000000000000E+00   0.00000000000000E+00
     -9.73945502804689E-09  -6.87503723313509E-15  -9.73946190308413E-09  -1.11111148683019E-16
      1.40666666666667E-02
      0.00000000000000E+00   0.00000000000000E+00   0.00000000000000E+00   0.00000000000000E+00   0.00000000000000E+00
      0.00000000000000E+00   0.00000000000000E+00   2.21356284573642E-16   0.00000000000000E+00   0.00000000000000E+00
      0.00000000000000E+00   0.00000000000000E+00   1.71030711723624E-08   4.80170813117274E-16   1.71030716525332E-08
     -1.08958640379054E-16  -1.19566666666667E-02  -1.19566666666667E-02   0.00000000000000E+00   0.00000000000000E+00
     -1.71030704858608E-08  -1.14239133383400E-15  -1.71030716282522E-08  -1.13612615069307E-16
      2.80044444444444E-02
      0.00000000000000E+00   0.00000000000000E+00   0.00000000000000E+00   0.00000000000000E+00   0.00000000000000E+00
      0.00000000000000E+00   0.00000000000000E+00   2.26009384483369E-16   0.00000000000000E+00   0.00000000000000E+00
      0.00000000000000E+00   0.00000000000000E+00   2.45376949512262E-08   8.59143539523414E-17   2.45376950371406E-08
     -1.08951275110130E-16  -2.38037777777778E-02  -2.38037777777778E-02   0.00000000000000E+00   0.00000000000000E+00
     -2.45376950714572E-08   2.70076378306087E-15  -2.45376923706934E-08  -1.18268958723510E-16
      5.40216296296296E-02
      0.00000000000000E+00   0.00000000000000E+00   0.00000000000000E+00   0.00000000000000E+00   0.00000000000000E+00
      0.00000000000000E+00   0.00000000000000E+00   2.34650192824260E-16   0.00000000000000E+00   0.00000000000000E+00
      0.00000000000000E+00   0.00000000000000E+00   2.90180119136293E-08  -1.89319005451853E-17   2.90180118946974E-08
     -1.08937713354673E-16  -4.59183851851852E-02  -4.59183851851852E-02   0.00000000000000E+00   0.00000000000000E+00
     -2.90180119006212E-08   5.90431463365665E-18  -2.90180118947168E-08  -1.26918799117245E-16
      9.56491259259259E-02
      0.00000000000000E+00   0.00000000000000E+00   0.00000000000000E+00   0.00000000000000E+00   0.00000000000000E+00
      0.00000000000000E+00   0.00000000000000E+00   2.48372970013283E-16   0.00000000000000E+00   0.00000000000000E+00
      0.00000000000000E+00   0.00000000000000E+00   3.11500450858047E-08  -6.38953695913572E-14   3.11499811904351E-08
     -1.08916400850667E-16  -8.13017570370370E-02  -8.13017570370370E-02   0.00000000000000E+00   0.00000000000000E+00
     -3.11499806951592E-08  -9.12573423562877E-17  -3.11499807864166E-08  -1.40660136948374E-16
      1.45649125925926E-01
      0.00000000000000E+00   0.00000000000000E+00   0.00000000000000E+00   0.00000000000000E+00   0.00000000000000E+00
      0.00000000000000E+00   0.00000000000000E+00   2.64724614680075E-16   0.00000000000000E+00   0.00000000000000E+00
      0.00000000000000E+00   0.00000000000000E+00   3.33176830824358E-08   2.71509825581386E-17   3.33176831095868E-08
     -1.08891248072420E-16  -1.23801757037037E-01  -1.23801757037037E-01   0.00000000000000E+00   0.00000000000000E+00
     -3.33176831037606E-08  -5.83478527505300E-18  -3.33176831095954E-08  -1.57036363584977E-16
      1.95649125925926E-01
      0.00000000000000E+00   0.00000000000000E+00   0.00000000000000E+00   0.00000000000000E+00   0.00000000000000E+00
      0.00000000000000E+00   0.00000000000000E+00   2.80966769451203E-16   0.00000000000000E+00   0.00000000000000E+00
      0.00000000000000E+00   0.00000000000000E+00   3.54695430201857E-08   3.21285771366235E-18   3.54695430233986E-08
     -1.08866433325458E-16  -1.66301757037037E-01  -1.66301757037037E-01   0.00000000000000E+00   0.00000000000000E+00
     -3.54695430141242E-08  -9.26932708926886E-18  -3.54695430233935E-08  -1.73303658601542E-16
      2.45649125925926E-01
      0.00000000000000E+00   0.00000000000000E+00   0.00000000000000E+00   0.00000000000000E+00   0.00000000000000E+00
      0.00000000000000E+00   0.00000000000000E+00   2.97123002788262E-16   0.00000000000000E+00   0.00000000000000E+00
      0.00000000000000E+00   0.00000000000000E+00   3.76193841126762E-08  -1.15302783981890E-17   3.76193841011459E-08
     -1.08841853271584E-16  -2.08801757037037E-01  -2.08801757037037E-01   0.00000000000000E+00   0.00000000000000E+00
     -3.76193840964720E-08  -4.67659786929415E-18  -3.76193841011486E-08  -1.89485036004088E-16
      2.95649125925926E-01
      0.00000000000000E+00   0.00000000000000E+00   0.00000000000000E+00   0.00000000000000E+00   0.00000000000000E+00
      0.00000000000000E+00   0.00000000000000E+00   3.13207608678994E-16   0.00000000000000E+00   0.00000000000000E+00
      0.00000000000000E+00   0.00000000000000E+00   3.97754799731445E-08   2.65086128871509E-17   3.97754799996531E-08
     -1.08817442733813E-16  -2.51301757037037E-01  -2.51301757037037E-01   0.00000000000000E+00   0.00000000000000E+00
     -3.97754799914986E-08  -8.16181669834522E-18  -3.97754799996604E-08  -2.05594678007940E-16
      3.45649125925926E-01
      0.00000000000000E+00   0.00000000000000E+00   0.00000000000000E+00   0.00000000000000E+00   0.00000000000000E+00
      0.00000000000000E+00   0.00000000000000E+00   3.29228562518267E-16   0.00000000000000E+00   0.00000000000000E+00
      0.00000000000000E+00   0.00000000000000E+00   4.19441373089402E-08   1.24238173362646E-17   4.19441373213640E-08
     -1.08793162636205E-16  -2.93801757037037E-01  -2.93801757037037E-01   0.00000000000000E+00   0.00000000000000E+00
     -4.19441373954382E-08   7.40890910375919E-17  -4.19441373213491E-08  -2.21640543057664E-16
      3.95649125925926E-01
      0.00000000000000E+00   0.00000000000000E+00   0.00000000000000E+00   0.00000000000000E+00   0.00000000000000E+00
      0.00000000000000E+00   0.00000000000000E+00   3.45189791156508E-16   0.00000000000000E+00   0.00000000000000E+00
      0.00000000000000E+00   0.00000000000000E+00   4.41294270578934E-08   5.15788793727522E-18   4.41294270630512E-08
     -1.08768990906761E-16  -3.36301757037037E-01  -3.36301757037037E-01   0.00000000000000E+00   0.00000000000000E+00
     -4.41294270394599E-08  -2.35879232577480E-17  -4.41294270630479E-08  -2.37626539437961E-16
      4.45649125925926E-01
      0.00000000000000E+00   0.00000000000000E+00   0.00000000000000E+00   0.00000000000000E+00   0.00000000000000E+00
      0.00000000000000E+00   0.00000000000000E+00   3.61092711791293E-16   0.00000000000000E+00   0.00000000000000E+00
      0.00000000000000E+00   0.00000000000000E+00   4.63338762220802E-08  -2.55148440108158E-17   4.63338761965654E-08
     -1.08744916510562E-16  -3.78801757037037E-01  -3.78801757037037E-01   0.00000000000000E+00   0.00000000000000E+00
     -4.63338762619094E-08   7.58947594164033E-17  -4.63338761860146E-08  -2.53554102083707E-16
      4.95649125925926E-01
      0.00000000000000E+00   0.00000000000000E+00   0.00000000000000E+00   0.00000000000000E+00   0.00000000000000E+00
      0.00000000000000E+00   0.00000000000000E+00   3.76937264051382E-16   0.00000000000000E+00   0.00000000000000E+00
      0.00000000000000E+00   0.00000000000000E+00   4.85591986804386E-08  -8.37556640037008E-16   4.85591978428820E-08
     -1.08720935247892E-16  -4.21301757037037E-01  -4.21301757037037E-01   0.00000000000000E+00   0.00000000000000E+00
     -4.85592071804678E-08   9.41325643538416E-15  -4.85591977672114E-08  -2.69423201930065E-16
      5.45649125925926E-01
      0.00000000000000E+00   0.00000000000000E+00   0.00000000000000E+00   0.00000000000000E+00   0.00000000000000E+00
      0.00000000000000E+00   0.00000000000000E+00   3.92722568784601E-16   0.00000000000000E+00   0.00000000000000E+00
      0.00000000000000E+00   0.00000000000000E+00   5.08065662657001E-08   7.56780585150486E-16   5.08065670224806E-08
     -1.08697047012034E-16  -4.63801757037037E-01  -4.63801757037037E-01   0.00000000000000E+00   0.00000000000000E+00
     -5.08065657699648E-08  -1.24414142257707E-15  -5.08065670141062E-08  -2.85232967785965E-16
      5.95649125925926E-01
      0.00000000000000E+00   0.00000000000000E+00   0.00000000000000E+00   0.00000000000000E+00   0.00000000000000E+00
      0.00000000000000E+00   0.00000000000000E+00   4.08447316160653E-16   0.00000000000000E+00   0.00000000000000E+00
      0.00000000000000E+00   0.00000000000000E+00   5.30767228146825E-08   6.88532812063023E-16   5.30767235032153E-08
     -1.08673254228074E-16  -5.06301757037037E-01  -5.06301757037037E-01   0.00000000000000E+00   0.00000000000000E+00
     -5.30767242530361E-08   7.65290812495844E-16  -5.30767234877453E-08  -3.00982087503140E-16
      6.45649125925926E-01
      0.00000000000000E+00   0.00000000000000E+00   0.00000000000000E+00   0.00000000000000E+00   0.00000000000000E+00
      0.00000000000000E+00   0.00000000000000E+00   4.24109998643191E-16   0.00000000000000E+00   0.00000000000000E+00
      0.00000000000000E+00   0.00000000000000E+00   5.53700689883173E-08   7.67976156720722E-16   5.53700697562935E-08
     -1.08649560907499E-16  -5.48801757037037E-01  -5.48801757037037E-01   0.00000000000000E+00   0.00000000000000E+00
     -5.53700704766149E-08   7.26232797476871E-16  -5.53700697503821E-08  -3.16669048562642E-16
      6.95649125925926E-01
      0.00000000000000E+00   0.00000000000000E+00   0.00000000000000E+00   0.00000000000000E+00   0.00000000000000E+00
      0.00000000000000E+00   0.00000000000000E+00   4.39709047493623E-16   0.00000000000000E+00   0.00000000000000E+00
      0.00000000000000E+00   0.00000000000000E+00   5.76867460232643E-08   6.09710483322340E-16   5.76867466329748E-08
     -1.08625972075516E-16  -5.91301757037037E-01  -5.91301757037037E-01   0.00000000000000E+00   0.00000000000000E+00
     -5.76867471481566E-08   5.14745508043312E-16  -5.76867466334111E-08  -3.32292276281368E-16
      7.45649125925926E-01
      0.00000000000000E+00   0.00000000000000E+00   0.00000000000000E+00   0.00000000000000E+00   0.00000000000000E+00
      0.00000000000000E+00   0.00000000000000E+00   4.55242907126998E-16   0.00000000000000E+00   0.00000000000000E+00
      0.00000000000000E+00   0.00000000000000E+00   6.00266850831717E-08  -2.26633557932768E-16   6.00266848565381E-08
     -1.08602493435604E-16  -6.33801757037037E-01  -6.33801757037037E-01   0.00000000000000E+00   0.00000000000000E+00
     -6.00266859140486E-08   1.05344117860148E-15  -6.00266848606074E-08  -3.47850208577749E-16
      7.95649125925926E-01
      0.00000000000000E+00   0.00000000000000E+00   0.00000000000000E+00   0.00000000000000E+00   0.00000000000000E+00
      0.00000000000000E+00   0.00000000000000E+00   4.70710068688843E-16   0.00000000000000E+00   0.00000000000000E+00
      0.00000000000000E+00   0.00000000000000E+00   6.23896366096768E-08   1.23995201004852E-15   6.23896378496289E-08
     -1.08579131187782E-16  -6.76301757037037E-01  -6.76301757037037E-01   0.00000000000000E+00   0.00000000000000E+00
     -6.23896443164558E-08   6.47669698769774E-15  -6.23896378397588E-08  -3.63341329707014E-16
      8.45649125925926E-01
      0.00000000000000E+00   0.00000000000000E+00   0.00000000000000E+00   0.00000000000000E+00   0.00000000000000E+00
      0.00000000000000E+00   0.00000000000000E+00   4.86109075575564E-16   0.00000000000000E+00   0.00000000000000E+00
      0.00000000000000E+00   0.00000000000000E+00   6.47751998392654E-08  -3.14216096414185E-17   6.47751998078438E-08
     -1.08555891961911E-16  -7.18801757037037E-01  -7.18801757037037E-01   0.00000000000000E+00   0.00000000000000E+00
     -6.47751998424980E-08   3.46788232847051E-17  -6.47751998078192E-08  -3.78764176011496E-16
      8.95649125925926E-01
      0.00000000000000E+00   0.00000000000000E+00   0.00000000000000E+00   0.00000000000000E+00   0.00000000000000E+00
      0.00000000000000E+00   0.00000000000000E+00   5.01438508335554E-16   0.00000000000000E+00   0.00000000000000E+00
      0.00000000000000E+00   0.00000000000000E+00   6.71828124663934E-08  -1.52772511450265E-17   6.71828124511161E-08
     -1.08532782836687E-16  -7.61301757037037E-01  -7.61301757037037E-01   0.00000000000000E+00   0.00000000000000E+00
     -6.71828126081275E-08   1.56956472920568E-16  -6.71828124511711E-08  -3.94117321149206E-16
      9.45649125925926E-01
      0.00000000000000E+00   0.00000000000000E+00   0.00000000000000E+00   0.00000000000000E+00   0.00000000000000E+00
      0.00000000000000E+00   0.00000000000000E+00   5.16696953259992E-16   0.00000000000000E+00   0.00000000000000E+00
      0.00000000000000E+00   0.00000000000000E+00   6.96117672154995E-08  -3.92604606971602E-17   6.96117671762390E-08
     -1.08509811355759E-16  -8.03801757037037E-01  -8.03801757037037E-01   0.00000000000000E+00   0.00000000000000E+00
     -6.96117671935873E-08   1.73816466644012E-17  -6.96117671762056E-08  -4.09399344412958E-16
      9.95649125925926E-01
      0.00000000000000E+00   0.00000000000000E+00   0.00000000000000E+00   0.00000000000000E+00   0.00000000000000E+00
      0.00000000000000E+00   0.00000000000000E+00   5.31882955457789E-16   0.00000000000000E+00   0.00000000000000E+00
      0.00000000000000E+00   0.00000000000000E+00   7.20612041808621E-08   1.94146519360509E-17   7.20612042002767E-08
     -1.08486985537672E-16  -8.46301757037037E-01  -8.46301757037037E-01   0.00000000000000E+00   0.00000000000000E+00
     -7.20612040653587E-08  -1.34904407372586E-16  -7.20612042002631E-08  -4.24608782899974E-16
      1.00000000000000E+00
      0.00000000000000E+00   0.00000000000000E+00   0.00000000000000E+00   0.00000000000000E+00   0.00000000000000E+00
      0.00000000000000E+00   0.00000000000000E+00   5.33200926756235E-16   0.00000000000000E+00   0.00000000000000E+00
      0.00000000000000E+00   0.00000000000000E+00   7.22752843714996E-08  -1.46630624709576E-17   7.22752843568365E-08
     -1.08485006460100E-16  -8.50000000000000E-01  -8.50000000000000E-01   0.00000000000000E+00   0.00000000000000E+00
     -7.22752843148473E-08  -4.19797697128030E-17  -7.22752843568270E-08  -4.25928786549284E-16
}
