DF-ISE text

Info {
  version   = 1.0
  type      = xyplot
  datasets  = [
    "time"
    "gate OuterVoltage" "gate InnerVoltage" "gate QuasiFermiPotential" "gate DisplacementCurrent" "gate eCurrent"
    "gate hCurrent" "gate TotalCurrent" "gate Charge" "source OuterVoltage" "source InnerVoltage"
    "source QuasiFermiPotential" "source DisplacementCurrent" "source eCurrent" "source hCurrent" "source TotalCurrent"
    "source Charge" "drain OuterVoltage" "drain InnerVoltage" "drain QuasiFermiPotential" "drain DisplacementCurrent"
    "drain eCurrent" "drain hCurrent" "drain TotalCurrent" "drain Charge" ]
  functions = [
    Time
    OuterVoltage InnerVoltage QuasiFermiPotential DisplacementCurrent eCurrent
    hCurrent TotalCurrent Charge OuterVoltage InnerVoltage
    QuasiFermiPotential DisplacementCurrent eCurrent hCurrent TotalCurrent
    Charge OuterVoltage InnerVoltage QuasiFermiPotential DisplacementCurrent
    eCurrent hCurrent TotalCurrent Charge ]
}

Data {
      0.00000000000000E+00
      0.00000000000000E+00   0.00000000000000E+00   0.00000000000000E+00   0.00000000000000E+00   0.00000000000000E+00
      0.00000000000000E+00   0.00000000000000E+00   2.07607956930163E-16   0.00000000000000E+00   0.00000000000000E+00
      0.00000000000000E+00   0.00000000000000E+00   2.96573599458838E-19  -2.72234940656575E-18  -2.42577580710691E-18
     -1.04227169099012E-16   0.00000000000000E+00   0.00000000000000E+00   0.00000000000000E+00   0.00000000000000E+00
      6.85876821374160E-18  -7.56592533115452E-18  -7.07157117412925E-19  -1.04619835886418E-16
      0.00000000000000E+00
      0.00000000000000E+00   0.00000000000000E+00   0.00000000000000E+00   0.00000000000000E+00   0.00000000000000E+00
      0.00000000000000E+00   0.00000000000000E+00   2.32190668351168E-16   0.00000000000000E+00   0.00000000000000E+00
      0.00000000000000E+00   0.00000000000000E+00  -6.84471934543925E-19  -3.27654855636611E-17  -3.34499574982051E-17
     -1.17216005716441E-16   0.00000000000000E+00   0.00000000000000E+00   0.00000000000000E+00   0.00000000000000E+00
      5.43010897186653E-18  -1.51855921426379E-17  -9.75548317077141E-18  -1.16795689122625E-16
      0.00000000000000E+00
      0.00000000000000E+00   0.00000000000000E+00   0.00000000000000E+00   0.00000000000000E+00   0.00000000000000E+00
      0.00000000000000E+00   0.00000000000000E+00   2.32190668229492E-16   0.00000000000000E+00   0.00000000000000E+00
      0.00000000000000E+00   0.00000000000000E+00   3.14402159000660E-17  -3.11502898639986E-17   2.89926036067409E-19
     -1.17216005683260E-16   0.00000000000000E+00   0.00000000000000E+00   0.00000000000000E+00   0.00000000000000E+00
     -5.14408181676005E-18   5.16769439838376E-18   2.36125816237188E-20  -1.16795689102997E-16
      1.00000000000000E-03
      0.00000000000000E+00   0.00000000000000E+00   0.00000000000000E+00   0.00000000000000E+00   0.00000000000000E+00
      0.00000000000000E+00   0.00000000000000E+00   2.32511215181719E-16   0.00000000000000E+00   0.00000000000000E+00
      0.00000000000000E+00   0.00000000000000E+00   8.42571979978319E-10   1.44569611914262E-15   8.42573425674438E-10
     -1.17215698141389E-16  -8.50000000000000E-04  -8.50000000000000E-04   0.00000000000000E+00   0.00000000000000E+00
     -8.42576020038281E-10  -8.48846830884640E-12  -8.51064488347127E-10  -1.17114334117755E-16
      2.86666666666667E-03
      0.00000000000000E+00   0.00000000000000E+00   0.00000000000000E+00   0.00000000000000E+00   0.00000000000000E+00
      0.00000000000000E+00   0.00000000000000E+00   2.33109361792987E-16   0.00000000000000E+00   0.00000000000000E+00
      0.00000000000000E+00   0.00000000000000E+00   2.26594846013782E-09   4.51206138958882E-16   2.26594891134396E-09
     -1.17215124400856E-16  -2.43666666666667E-03  -2.43666666666667E-03   0.00000000000000E+00   0.00000000000000E+00
     -2.26594986651292E-09  -3.02675314040820E-14  -2.26598013404433E-09  -1.17708992528756E-16
      6.60000000000000E-03
      0.00000000000000E+00   0.00000000000000E+00   0.00000000000000E+00   0.00000000000000E+00   0.00000000000000E+00
      0.00000000000000E+00   0.00000000000000E+00   2.34304850561437E-16   0.00000000000000E+00   0.00000000000000E+00
      0.00000000000000E+00   0.00000000000000E+00   4.60816287535872E-09  -1.63410899731639E-15   4.60816124124972E-09
     -1.17213978356912E-16  -5.61000000000000E-03  -5.61000000000000E-03   0.00000000000000E+00   0.00000000000000E+00
     -4.60816468181542E-09  -4.74243682415076E-13  -4.60863892549784E-09  -1.18897741179574E-16
      1.40666666666667E-02
      0.00000000000000E+00   0.00000000000000E+00   0.00000000000000E+00   0.00000000000000E+00   0.00000000000000E+00
      0.00000000000000E+00   0.00000000000000E+00   2.36692664509083E-16   0.00000000000000E+00   0.00000000000000E+00
      0.00000000000000E+00   0.00000000000000E+00   7.76550437995029E-09  -2.25528829062413E-17   7.76550435739741E-09
     -1.17211692672139E-16  -1.19566666666667E-02  -1.19566666666667E-02   0.00000000000000E+00   0.00000000000000E+00
     -7.76550438260613E-09   2.54539921858862E-17  -7.76550435715214E-09  -1.21272972467234E-16
      2.70088888888889E-02
      0.00000000000000E+00   0.00000000000000E+00   0.00000000000000E+00   0.00000000000000E+00   0.00000000000000E+00
      0.00000000000000E+00   0.00000000000000E+00   2.40821849950477E-16   0.00000000000000E+00   0.00000000000000E+00
      0.00000000000000E+00   0.00000000000000E+00   1.03279086819083E-08   3.81907210428821E-15   1.03279125009804E-08
     -1.17207753052193E-16  -2.29575555555556E-02  -2.29575555555556E-02   0.00000000000000E+00   0.00000000000000E+00
     -1.03279095118056E-08  -2.79767345080549E-15  -1.03279123094790E-08  -1.25382927961433E-16
      5.11677037037037E-02
      0.00000000000000E+00   0.00000000000000E+00   0.00000000000000E+00   0.00000000000000E+00   0.00000000000000E+00
      0.00000000000000E+00   0.00000000000000E+00   2.48498480251634E-16   0.00000000000000E+00   0.00000000000000E+00
      0.00000000000000E+00   0.00000000000000E+00   1.11489654582667E-08   5.14761764041608E-17   1.11489655097429E-08
     -1.17200476387030E-16  -4.34925481481481E-02  -4.34925481481481E-02   0.00000000000000E+00   0.00000000000000E+00
     -1.11489655282902E-08   1.83422425918298E-17  -1.11489655099479E-08  -1.33031046475074E-16
      8.98218074074074E-02
      0.00000000000000E+00   0.00000000000000E+00   0.00000000000000E+00   0.00000000000000E+00   0.00000000000000E+00
      0.00000000000000E+00   0.00000000000000E+00   2.60703299340454E-16   0.00000000000000E+00   0.00000000000000E+00
      0.00000000000000E+00   0.00000000000000E+00   1.05948041751012E-08  -3.69372858856009E-16   1.05948038057284E-08
     -1.17189026684331E-16  -7.63485362962963E-02  -7.63485362962963E-02   0.00000000000000E+00   0.00000000000000E+00
     -1.05948038005069E-08   1.09017079048134E-17  -1.05948037896052E-08  -1.45205370440810E-16
      1.39821807407407E-01
      0.00000000000000E+00   0.00000000000000E+00   0.00000000000000E+00   0.00000000000000E+00   0.00000000000000E+00
      0.00000000000000E+00   0.00000000000000E+00   2.76362983105659E-16   0.00000000000000E+00   0.00000000000000E+00
      0.00000000000000E+00   0.00000000000000E+00   1.05623894260200E-08  -4.88300799863618E-15   1.05623845430120E-08
     -1.17174517973221E-16  -1.18848536296296E-01  -1.18848536296296E-01   0.00000000000000E+00   0.00000000000000E+00
     -1.05623846904165E-08   2.37127532963788E-16  -1.05623844532890E-08  -1.60844119021107E-16
      1.64821807407407E-01
      0.00000000000000E+00   0.00000000000000E+00   0.00000000000000E+00   0.00000000000000E+00   0.00000000000000E+00
      0.00000000000000E+00   0.00000000000000E+00   2.84143800135983E-16   0.00000000000000E+00   0.00000000000000E+00
      0.00000000000000E+00   0.00000000000000E+00   1.07972616886569E-08   1.51063457693422E-14   1.07972767950026E-08
     -1.17167374886794E-16  -1.40098536296296E-01  -1.40098536296296E-01   0.00000000000000E+00   0.00000000000000E+00
     -1.07972767695955E-08  -3.32357204801560E-16  -1.07972771019527E-08  -1.68619723563641E-16
      2.01488474074074E-01
      0.00000000000000E+00   0.00000000000000E+00   0.00000000000000E+00   0.00000000000000E+00   0.00000000000000E+00
      0.00000000000000E+00   0.00000000000000E+00   2.95501248795295E-16   0.00000000000000E+00   0.00000000000000E+00
      0.00000000000000E+00   0.00000000000000E+00   1.12795725517906E-08   7.26399201438211E-16   1.12795732781898E-08
     -1.17157018277783E-16  -1.71265202962963E-01  -1.71265202962963E-01   0.00000000000000E+00   0.00000000000000E+00
     -1.12795732928763E-08   3.35878312684848E-17  -1.12795732592884E-08  -1.79973875018995E-16
      2.23488474074074E-01
      0.00000000000000E+00   0.00000000000000E+00   0.00000000000000E+00   0.00000000000000E+00   0.00000000000000E+00
      0.00000000000000E+00   0.00000000000000E+00   3.02286355715201E-16   0.00000000000000E+00   0.00000000000000E+00
      0.00000000000000E+00   0.00000000000000E+00   1.16096307455419E-08  -1.02586573775191E-16   1.16096306429553E-08
     -1.17150867873434E-16  -1.89965202962963E-01  -1.89965202962963E-01   0.00000000000000E+00   0.00000000000000E+00
     -1.16096302406690E-08  -3.84688286388341E-16  -1.16096306253573E-08  -1.86758893630553E-16
      2.58688474074074E-01
      0.00000000000000E+00   0.00000000000000E+00   0.00000000000000E+00   0.00000000000000E+00   0.00000000000000E+00
      0.00000000000000E+00   0.00000000000000E+00   3.13099322534188E-16   0.00000000000000E+00   0.00000000000000E+00
      0.00000000000000E+00   0.00000000000000E+00   1.21643184546504E-08   4.36665312149201E-17   1.21643184983169E-08
     -1.17141119106769E-16  -2.19885202962963E-01  -2.19885202962963E-01   0.00000000000000E+00   0.00000000000000E+00
     -1.21643184999002E-08   3.06634147979118E-18  -1.21643184968339E-08  -1.97573901888434E-16
      2.77461807407408E-01
      0.00000000000000E+00   0.00000000000000E+00   0.00000000000000E+00   0.00000000000000E+00   0.00000000000000E+00
      0.00000000000000E+00   0.00000000000000E+00   3.18845436168952E-16   0.00000000000000E+00   0.00000000000000E+00
      0.00000000000000E+00   0.00000000000000E+00   1.24615180699394E-08  -2.29205364914947E-15   1.24615157778857E-08
     -1.17135963441204E-16  -2.35842536296296E-01  -2.35842536296296E-01   0.00000000000000E+00   0.00000000000000E+00
     -1.24615154414593E-08  -1.44580741014823E-16  -1.24615155860401E-08  -2.03321967727142E-16
      3.04996029629630E-01
      0.00000000000000E+00   0.00000000000000E+00   0.00000000000000E+00   0.00000000000000E+00   0.00000000000000E+00
      0.00000000000000E+00   0.00000000000000E+00   3.27248039204279E-16   0.00000000000000E+00   0.00000000000000E+00
      0.00000000000000E+00   0.00000000000000E+00   1.28937885751938E-08  -3.03012139726175E-15   1.28937855450724E-08
     -1.17128453658529E-16  -2.59246625185185E-01  -2.59246625185185E-01   0.00000000000000E+00   0.00000000000000E+00
     -1.28937861449804E-08   7.12609088564120E-16  -1.28937854323713E-08  -2.11728273947434E-16
      3.25187792592593E-01
      0.00000000000000E+00   0.00000000000000E+00   0.00000000000000E+00   0.00000000000000E+00   0.00000000000000E+00
      0.00000000000000E+00   0.00000000000000E+00   3.33391672182160E-16   0.00000000000000E+00   0.00000000000000E+00
      0.00000000000000E+00   0.00000000000000E+00   1.32014368965961E-08  -2.34663999262292E-16   1.32014366619321E-08
     -1.17122983993019E-16  -2.76409623703704E-01  -2.76409623703704E-01   0.00000000000000E+00   0.00000000000000E+00
     -1.32014369686274E-08  -8.27883692993714E-16  -1.32014377965111E-08  -2.17875138757517E-16
      3.54802378271605E-01
      0.00000000000000E+00   0.00000000000000E+00   0.00000000000000E+00   0.00000000000000E+00   0.00000000000000E+00
      0.00000000000000E+00   0.00000000000000E+00   3.42375411670969E-16   0.00000000000000E+00   0.00000000000000E+00
      0.00000000000000E+00   0.00000000000000E+00   1.36383238757570E-08   1.62360719272678E-15   1.36383254993642E-08
     -1.17115016482846E-16  -3.01582021530864E-01  -3.01582021530864E-01   0.00000000000000E+00   0.00000000000000E+00
     -1.36383248612090E-08  -1.42801000375840E-14  -1.36383391413090E-08  -2.26864238036482E-16
      3.98237103934157E-01
      0.00000000000000E+00   0.00000000000000E+00   0.00000000000000E+00   0.00000000000000E+00   0.00000000000000E+00
      0.00000000000000E+00   0.00000000000000E+00   3.55496104753682E-16   0.00000000000000E+00   0.00000000000000E+00
      0.00000000000000E+00   0.00000000000000E+00   1.42380812943948E-08   6.39485914942222E-15   1.42380876892540E-08
     -1.17103442034921E-16  -3.38501538344033E-01  -3.38501538344033E-01   0.00000000000000E+00   0.00000000000000E+00
     -1.42380891948862E-08   5.95727829740073E-14  -1.42380296221032E-08  -2.39993795181852E-16
      4.23237103934157E-01
      0.00000000000000E+00   0.00000000000000E+00   0.00000000000000E+00   0.00000000000000E+00   0.00000000000000E+00
      0.00000000000000E+00   0.00000000000000E+00   3.63019427284854E-16   0.00000000000000E+00   0.00000000000000E+00
      0.00000000000000E+00   0.00000000000000E+00   1.45646569112291E-08   6.18941470735241E-16   1.45646575301705E-08
     -1.17096836822489E-16  -3.59751538344033E-01  -3.59751538344033E-01   0.00000000000000E+00   0.00000000000000E+00
     -1.45646577022168E-08   9.99598612173022E-15  -1.45646477062307E-08  -2.47522616579594E-16
      4.48237103934157E-01
      0.00000000000000E+00   0.00000000000000E+00   0.00000000000000E+00   0.00000000000000E+00   0.00000000000000E+00
      0.00000000000000E+00   0.00000000000000E+00   3.70522628267904E-16   0.00000000000000E+00   0.00000000000000E+00
      0.00000000000000E+00   0.00000000000000E+00   1.48771039138984E-08   5.09274036746708E-15   1.48771090066388E-08
     -1.17090271043988E-16  -3.81001538344033E-01  -3.81001538344033E-01   0.00000000000000E+00   0.00000000000000E+00
     -1.48771067346066E-08  -2.66049633262839E-14  -1.48771333395699E-08  -2.55031530001415E-16
      4.84903770600823E-01
      0.00000000000000E+00   0.00000000000000E+00   0.00000000000000E+00   0.00000000000000E+00   0.00000000000000E+00
      0.00000000000000E+00   0.00000000000000E+00   3.81492144531255E-16   0.00000000000000E+00   0.00000000000000E+00
      0.00000000000000E+00   0.00000000000000E+00   1.53223215694289E-08   4.13816562394375E-14   1.53223629510852E-08
     -1.17080709541191E-16  -4.12168205010700E-01  -4.12168205010700E-01   0.00000000000000E+00   0.00000000000000E+00
     -1.53223632145852E-08  -3.19991588676225E-14  -1.53223952137441E-08  -2.66009716933821E-16
      5.21570437267490E-01
      0.00000000000000E+00   0.00000000000000E+00   0.00000000000000E+00   0.00000000000000E+00   0.00000000000000E+00
      0.00000000000000E+00   0.00000000000000E+00   3.92421335050592E-16   0.00000000000000E+00   0.00000000000000E+00
      0.00000000000000E+00   0.00000000000000E+00   1.57481728565526E-08   3.52924657891777E-15   1.57481763857991E-08
     -1.17071225481770E-16  -4.43334871677366E-01  -4.43334871677366E-01   0.00000000000000E+00   0.00000000000000E+00
     -1.57481757731078E-08  -5.56857017299329E-14  -1.57482314588095E-08  -2.76947828236086E-16
      5.39903770600823E-01
      0.00000000000000E+00   0.00000000000000E+00   0.00000000000000E+00   0.00000000000000E+00   0.00000000000000E+00
      0.00000000000000E+00   0.00000000000000E+00   3.97871295872398E-16   0.00000000000000E+00   0.00000000000000E+00
      0.00000000000000E+00   0.00000000000000E+00   1.59619258207254E-08  -9.43474626706826E-16   1.59619248772507E-08
     -1.17066511294407E-16  -4.58918205010700E-01  -4.58918205010700E-01   0.00000000000000E+00   0.00000000000000E+00
     -1.59619247274052E-08  -4.44773020076151E-14  -1.59619692047072E-08  -2.82402316320152E-16
      5.64348215045268E-01
      0.00000000000000E+00   0.00000000000000E+00   0.00000000000000E+00   0.00000000000000E+00   0.00000000000000E+00
      0.00000000000000E+00   0.00000000000000E+00   4.05123134207132E-16   0.00000000000000E+00   0.00000000000000E+00
      0.00000000000000E+00   0.00000000000000E+00   1.62392931920194E-08   4.11719403043026E-15   1.62392973092134E-08
     -1.17060253581735E-16  -4.79695982788478E-01  -4.79695982788478E-01   0.00000000000000E+00   0.00000000000000E+00
     -1.62392988991305E-08  -1.70270301991477E-13  -1.62394691694325E-08  -2.89660244406197E-16
      5.88792659489712E-01
      0.00000000000000E+00   0.00000000000000E+00   0.00000000000000E+00   0.00000000000000E+00   0.00000000000000E+00
      0.00000000000000E+00   0.00000000000000E+00   4.12358456185766E-16   0.00000000000000E+00   0.00000000000000E+00
      0.00000000000000E+00   0.00000000000000E+00   1.65162453303176E-08  -2.10449712602765E-13   1.65160348806050E-08
     -1.17054026813702E-16  -5.00473760566255E-01  -5.00473760566255E-01   0.00000000000000E+00   0.00000000000000E+00
     -1.65160305559781E-08  -1.23414032570428E-13  -1.65161539700106E-08  -2.96901700249716E-16
      6.21385252082305E-01
      0.00000000000000E+00   0.00000000000000E+00   0.00000000000000E+00   0.00000000000000E+00   0.00000000000000E+00
      0.00000000000000E+00   0.00000000000000E+00   4.21980509878626E-16   0.00000000000000E+00   0.00000000000000E+00
      0.00000000000000E+00   0.00000000000000E+00   1.68907246313655E-08  -4.80401239003798E-14   1.68906765912416E-08
     -1.17045770986473E-16  -5.28177464269959E-01  -5.28177464269959E-01   0.00000000000000E+00   0.00000000000000E+00
     -1.68906739064366E-08  -1.34665682760615E-13  -1.68908085721193E-08  -3.06531978478672E-16
      6.40940807637860E-01
      0.00000000000000E+00   0.00000000000000E+00   0.00000000000000E+00   0.00000000000000E+00   0.00000000000000E+00
      0.00000000000000E+00   0.00000000000000E+00   4.27740313645394E-16   0.00000000000000E+00   0.00000000000000E+00
      0.00000000000000E+00   0.00000000000000E+00   1.71155971103505E-08   3.19996582805992E-14   1.71156291100088E-08
     -1.17040842252430E-16  -5.44799686492181E-01  -5.44799686492181E-01   0.00000000000000E+00   0.00000000000000E+00
     -1.71156298568170E-08  -1.50244793091225E-13  -1.71157801016101E-08  -3.12296735938346E-16
      6.60496363193416E-01
      0.00000000000000E+00   0.00000000000000E+00   0.00000000000000E+00   0.00000000000000E+00   0.00000000000000E+00
      0.00000000000000E+00   0.00000000000000E+00   4.33490254445105E-16   0.00000000000000E+00   0.00000000000000E+00
      0.00000000000000E+00   0.00000000000000E+00   1.73412725356686E-08   1.42922347035530E-15   1.73412739648920E-08
     -1.17035931573770E-16  -5.61421908714404E-01  -5.61421908714404E-01   0.00000000000000E+00   0.00000000000000E+00
     -1.73412750541912E-08  -2.18158563197672E-13  -1.73414932127544E-08  -3.18051639342931E-16
      6.80051918748972E-01
      0.00000000000000E+00   0.00000000000000E+00   0.00000000000000E+00   0.00000000000000E+00   0.00000000000000E+00
      0.00000000000000E+00   0.00000000000000E+00   4.39230497261626E-16   0.00000000000000E+00   0.00000000000000E+00
      0.00000000000000E+00   0.00000000000000E+00   1.75691348122797E-08   2.33623315652289E-15   1.75691371485128E-08
     -1.17031038534530E-16  -5.78044130936626E-01  -5.78044130936626E-01   0.00000000000000E+00   0.00000000000000E+00
     -1.75691367493731E-08   3.41157711647897E-13  -1.75687955916614E-08  -3.23796847935863E-16
      7.13948215045268E-01
      0.00000000000000E+00   0.00000000000000E+00   0.00000000000000E+00   0.00000000000000E+00   0.00000000000000E+00
      0.00000000000000E+00   0.00000000000000E+00   4.49157727629815E-16   0.00000000000000E+00   0.00000000000000E+00
      0.00000000000000E+00   0.00000000000000E+00   1.79697387773252E-08   3.51942502877315E-16   1.79697391292677E-08
     -1.17022597916797E-16  -6.06855982788478E-01  -6.06855982788478E-01   0.00000000000000E+00   0.00000000000000E+00
     -1.79697379729606E-08   1.19986299066512E-13  -1.79696179866616E-08  -3.33732685373242E-16
      7.38948215045268E-01
      0.00000000000000E+00   0.00000000000000E+00   0.00000000000000E+00   0.00000000000000E+00   0.00000000000000E+00
      0.00000000000000E+00   0.00000000000000E+00   4.56461554646163E-16   0.00000000000000E+00   0.00000000000000E+00
      0.00000000000000E+00   0.00000000000000E+00   1.82685818816331E-08  -8.90620969502218E-18   1.82685818727269E-08
     -1.17016404696320E-16  -6.28105982788478E-01  -6.28105982788478E-01   0.00000000000000E+00   0.00000000000000E+00
     -1.82685825032951E-08  -2.84223496316037E-13  -1.82688667267914E-08  -3.41042856955648E-16
      7.63948215045268E-01
      0.00000000000000E+00   0.00000000000000E+00   0.00000000000000E+00   0.00000000000000E+00   0.00000000000000E+00
      0.00000000000000E+00   0.00000000000000E+00   4.63750468869757E-16   0.00000000000000E+00   0.00000000000000E+00
      0.00000000000000E+00   0.00000000000000E+00   1.85710556128220E-08  -2.16783319630134E-16   1.85710553960387E-08
     -1.17010237905427E-16  -6.49355982788478E-01  -6.49355982788478E-01   0.00000000000000E+00   0.00000000000000E+00
     -1.85710562652841E-08  -4.65210257049015E-13  -1.85715214755411E-08  -3.48338109229305E-16
      7.88948215045268E-01
      0.00000000000000E+00   0.00000000000000E+00   0.00000000000000E+00   0.00000000000000E+00   0.00000000000000E+00
      0.00000000000000E+00   0.00000000000000E+00   4.71024745900828E-16   0.00000000000000E+00   0.00000000000000E+00
      0.00000000000000E+00   0.00000000000000E+00   1.88764394149178E-08   7.82586216204251E-16   1.88764401975040E-08
     -1.17004096791743E-16  -6.70605982788478E-01  -6.70605982788478E-01   0.00000000000000E+00   0.00000000000000E+00
     -1.88764391466736E-08   6.78240177189894E-13  -1.88757609064964E-08  -3.55618710216134E-16
      8.25614881711935E-01
      0.00000000000000E+00   0.00000000000000E+00   0.00000000000000E+00   0.00000000000000E+00   0.00000000000000E+00
      0.00000000000000E+00   0.00000000000000E+00   4.81667735783602E-16   0.00000000000000E+00   0.00000000000000E+00
      0.00000000000000E+00   0.00000000000000E+00   1.93277682170001E-08  -9.17699104223514E-14   1.93276764470897E-08
     -1.16995134774189E-16  -7.01772649455144E-01  -7.01772649455144E-01   0.00000000000000E+00   0.00000000000000E+00
     -1.93276751533985E-08   1.32347950108211E-13  -1.93275428054484E-08  -3.66270943155744E-16
      8.50059326156379E-01
      0.00000000000000E+00   0.00000000000000E+00   0.00000000000000E+00   0.00000000000000E+00   0.00000000000000E+00
      0.00000000000000E+00   0.00000000000000E+00   4.88746239557533E-16   0.00000000000000E+00   0.00000000000000E+00
      0.00000000000000E+00   0.00000000000000E+00   1.96313197268519E-08  -9.35244011836176E-16   1.96313187916078E-08
     -1.16989188847837E-16  -7.22550427232922E-01  -7.22550427232922E-01   0.00000000000000E+00   0.00000000000000E+00
     -1.96313193667434E-08  -5.45319826249279E-13  -1.96318646865696E-08  -3.73355585543196E-16
      8.74503770600824E-01
      0.00000000000000E+00   0.00000000000000E+00   0.00000000000000E+00   0.00000000000000E+00   0.00000000000000E+00
      0.00000000000000E+00   0.00000000000000E+00   4.95811525897036E-16   0.00000000000000E+00   0.00000000000000E+00
      0.00000000000000E+00   0.00000000000000E+00   1.99382858496796E-08  -1.84503120729839E-15   1.99382840046484E-08
     -1.16983265161174E-16  -7.43328205010700E-01  -7.43328205010700E-01   0.00000000000000E+00   0.00000000000000E+00
     -1.99382847844430E-08  -1.20097664242631E-12  -1.99394857610855E-08  -3.80426990226650E-16
      8.98948215045268E-01
      0.00000000000000E+00   0.00000000000000E+00   0.00000000000000E+00   0.00000000000000E+00   0.00000000000000E+00
      0.00000000000000E+00   0.00000000000000E+00   5.02863805486690E-16   0.00000000000000E+00   0.00000000000000E+00
      0.00000000000000E+00   0.00000000000000E+00   2.02468650791058E-08   1.77865440505586E-15   2.02468668577602E-08
     -1.16977363001604E-16  -7.64105982788478E-01  -7.64105982788478E-01   0.00000000000000E+00   0.00000000000000E+00
     -2.02468666803710E-08  -1.23187332531551E-12  -2.02480985536963E-08  -3.87485361916322E-16
      9.44577844674898E-01
      0.00000000000000E+00   0.00000000000000E+00   0.00000000000000E+00   0.00000000000000E+00   0.00000000000000E+00
      0.00000000000000E+00   0.00000000000000E+00   5.15993882670298E-16   0.00000000000000E+00   0.00000000000000E+00
      0.00000000000000E+00   0.00000000000000E+00   2.08247330724627E-08   9.09814660005385E-14   2.08248240539287E-08
     -1.16966400766964E-16  -8.02891167973663E-01  -8.02891167973663E-01   0.00000000000000E+00   0.00000000000000E+00
     -2.08248271843462E-08   1.56266685637823E-12  -2.08232645174898E-08  -4.00626725613492E-16
      9.69577844674898E-01
      0.00000000000000E+00   0.00000000000000E+00   0.00000000000000E+00   0.00000000000000E+00   0.00000000000000E+00
      0.00000000000000E+00   0.00000000000000E+00   5.23169187757862E-16   0.00000000000000E+00   0.00000000000000E+00
      0.00000000000000E+00   0.00000000000000E+00   2.11420573735302E-08   2.74452711216436E-15   2.11420601180573E-08
     -1.16960423623056E-16  -8.24141167973663E-01  -8.24141167973663E-01   0.00000000000000E+00   0.00000000000000E+00
     -2.11420591509714E-08  -2.41071699527514E-13  -2.11423002226710E-08  -4.07808160225364E-16
      9.84788922337449E-01
      0.00000000000000E+00   0.00000000000000E+00   0.00000000000000E+00   0.00000000000000E+00   0.00000000000000E+00
      0.00000000000000E+00   0.00000000000000E+00   5.27528632105709E-16   0.00000000000000E+00   0.00000000000000E+00
      0.00000000000000E+00   0.00000000000000E+00   2.13356091090478E-08   1.36801079091497E-15   2.13356104770586E-08
     -1.16956796427644E-16  -8.37070583986832E-01  -8.37070583986832E-01   0.00000000000000E+00   0.00000000000000E+00
     -2.13356112324388E-08  -2.69066079713480E-12  -2.13383018932360E-08  -4.12171313015121E-16
      1.00000000000000E+00
      0.00000000000000E+00   0.00000000000000E+00   0.00000000000000E+00   0.00000000000000E+00   0.00000000000000E+00
      0.00000000000000E+00   0.00000000000000E+00   5.31883339317756E-16   0.00000000000000E+00   0.00000000000000E+00
      0.00000000000000E+00   0.00000000000000E+00   2.15300103547449E-08   5.63773176201647E-17   2.15300104111222E-08
     -1.16953176231578E-16  -8.50000000000000E-01  -8.50000000000000E-01   0.00000000000000E+00   0.00000000000000E+00
     -2.15300113591841E-08  -3.32167996059141E-12  -2.15333330391447E-08  -4.16529711879320E-16
}
