DF-ISE text

Info {
  version   = 1.0
  type      = xyplot
  datasets  = [
    "time"
    "gate OuterVoltage" "gate InnerVoltage" "gate QuasiFermiPotential" "gate DisplacementCurrent" "gate eCurrent"
    "gate hCurrent" "gate TotalCurrent" "gate Charge" "source OuterVoltage" "source InnerVoltage"
    "source QuasiFermiPotential" "source DisplacementCurrent" "source eCurrent" "source hCurrent" "source TotalCurrent"
    "source Charge" "drain OuterVoltage" "drain InnerVoltage" "drain QuasiFermiPotential" "drain DisplacementCurrent"
    "drain eCurrent" "drain hCurrent" "drain TotalCurrent" "drain Charge" ]
  functions = [
    Time
    OuterVoltage InnerVoltage QuasiFermiPotential DisplacementCurrent eCurrent
    hCurrent TotalCurrent Charge OuterVoltage InnerVoltage
    QuasiFermiPotential DisplacementCurrent eCurrent hCurrent TotalCurrent
    Charge OuterVoltage InnerVoltage QuasiFermiPotential DisplacementCurrent
    eCurrent hCurrent TotalCurrent Charge ]
}

Data {
      0.00000000000000E+00
      0.00000000000000E+00   0.00000000000000E+00   0.00000000000000E+00   0.00000000000000E+00   0.00000000000000E+00
      0.00000000000000E+00   0.00000000000000E+00   2.04244035588462E-16   0.00000000000000E+00   0.00000000000000E+00
      0.00000000000000E+00   0.00000000000000E+00  -1.27757308859504E-18  -1.78211839321529E-18  -3.05969148181033E-18
     -1.02547341367970E-16   0.00000000000000E+00   0.00000000000000E+00   0.00000000000000E+00   0.00000000000000E+00
      1.08597082066110E-17  -1.17731358293238E-17  -9.13427622712821E-19  -1.02960535759956E-16
      0.00000000000000E+00
      0.00000000000000E+00   0.00000000000000E+00   0.00000000000000E+00   0.00000000000000E+00   0.00000000000000E+00
      0.00000000000000E+00   0.00000000000000E+00   2.04244018398717E-16   0.00000000000000E+00   0.00000000000000E+00
      0.00000000000000E+00   0.00000000000000E+00   1.27528572763819E-17  -1.67015040948947E-17  -3.94864681851282E-18
     -1.02547333439130E-16   0.00000000000000E+00   0.00000000000000E+00   0.00000000000000E+00   0.00000000000000E+00
     -7.54463911046293E-17   7.29021371122505E-17  -2.54425399237882E-18  -1.02960526542857E-16
      0.00000000000000E+00
      0.00000000000000E+00   0.00000000000000E+00   0.00000000000000E+00   0.00000000000000E+00   0.00000000000000E+00
      0.00000000000000E+00   0.00000000000000E+00   2.04244018398710E-16   0.00000000000000E+00   0.00000000000000E+00
      0.00000000000000E+00   0.00000000000000E+00   2.30190205231131E-17  -2.29994255534250E-17   1.95949696880997E-20
     -1.02547333439126E-16   0.00000000000000E+00   0.00000000000000E+00   0.00000000000000E+00   0.00000000000000E+00
     -7.51606103035585E-17   7.51690677550798E-17   8.45745152128629E-21  -1.02960526542853E-16
      1.00000000000000E-03
      0.00000000000000E+00   0.00000000000000E+00   0.00000000000000E+00   0.00000000000000E+00   0.00000000000000E+00
      0.00000000000000E+00   0.00000000000000E+00   2.04538230058590E-16   0.00000000000000E+00   0.00000000000000E+00
      0.00000000000000E+00   0.00000000000000E+00   1.60211988106468E-09   4.34820147354586E-16   1.60212031588483E-09
     -1.02546815835784E-16  -7.80000000000000E-04  -7.80000000000000E-04   0.00000000000000E+00   0.00000000000000E+00
     -1.60212126109188E-09   8.24605455602322E-14  -1.60203880054632E-09  -1.03254518891088E-16
      2.86666666666667E-03
      0.00000000000000E+00   0.00000000000000E+00   0.00000000000000E+00   0.00000000000000E+00   0.00000000000000E+00
      0.00000000000000E+00   0.00000000000000E+00   2.05087221544243E-16   0.00000000000000E+00   0.00000000000000E+00
      0.00000000000000E+00   0.00000000000000E+00   4.39424597057765E-09   4.12313046098400E-16   4.39424638289069E-09
     -1.02545850578462E-16  -2.23600000000000E-03  -2.23600000000000E-03   0.00000000000000E+00   0.00000000000000E+00
     -4.39424972834851E-09  -1.34839597958504E-16  -4.39424986318810E-09  -1.03803138102750E-16
      6.60000000000000E-03
      0.00000000000000E+00   0.00000000000000E+00   0.00000000000000E+00   0.00000000000000E+00   0.00000000000000E+00
      0.00000000000000E+00   0.00000000000000E+00   2.06184417288805E-16   0.00000000000000E+00   0.00000000000000E+00
      0.00000000000000E+00   0.00000000000000E+00   9.20453519094269E-09  -2.04927062472927E-14   9.20451469823644E-09
     -1.02543923672128E-16  -5.14800000000000E-03  -5.14800000000000E-03   0.00000000000000E+00   0.00000000000000E+00
     -9.20453586646515E-09  -2.96622365177642E-14  -9.20456552870167E-09  -1.04899728730562E-16
      1.40666666666667E-02
      0.00000000000000E+00   0.00000000000000E+00   0.00000000000000E+00   0.00000000000000E+00   0.00000000000000E+00
      0.00000000000000E+00   0.00000000000000E+00   2.08375722818723E-16   0.00000000000000E+00   0.00000000000000E+00
      0.00000000000000E+00   0.00000000000000E+00   1.61369494610705E-08  -5.70414364170414E-17   1.61369494040290E-08
     -1.02540084135358E-16  -1.09720000000000E-02  -1.09720000000000E-02   0.00000000000000E+00   0.00000000000000E+00
     -1.61369494439204E-08   4.57802478822880E-17  -1.61369493981401E-08  -1.07090340398720E-16
      2.80044444444444E-02
      0.00000000000000E+00   0.00000000000000E+00   0.00000000000000E+00   0.00000000000000E+00   0.00000000000000E+00
      0.00000000000000E+00   0.00000000000000E+00   2.12455557154145E-16   0.00000000000000E+00   0.00000000000000E+00
      0.00000000000000E+00   0.00000000000000E+00   2.26355252501697E-08   2.18343860738782E-16   2.26355254685136E-08
     -1.02532966546842E-16  -2.18434666666667E-02  -2.18434666666667E-02   0.00000000000000E+00   0.00000000000000E+00
     -2.26355253364498E-08   8.53342362203997E-16  -2.26355244831075E-08  -1.11170467071666E-16
      5.40216296296296E-02
      0.00000000000000E+00   0.00000000000000E+00   0.00000000000000E+00   0.00000000000000E+00   0.00000000000000E+00
      0.00000000000000E+00   0.00000000000000E+00   2.20036724523438E-16   0.00000000000000E+00   0.00000000000000E+00
      0.00000000000000E+00   0.00000000000000E+00   2.57631465820299E-08   8.53846343705394E-17   2.57631466674146E-08
     -1.02519835629335E-16  -4.21368711111111E-02  -4.21368711111111E-02   0.00000000000000E+00   0.00000000000000E+00
     -2.57631466872222E-08   1.98071570226097E-17  -2.57631466674151E-08  -1.18756314819035E-16
      9.56491259259259E-02
      0.00000000000000E+00   0.00000000000000E+00   0.00000000000000E+00   0.00000000000000E+00   0.00000000000000E+00
      0.00000000000000E+00   0.00000000000000E+00   2.32082565776741E-16   0.00000000000000E+00   0.00000000000000E+00
      0.00000000000000E+00   0.00000000000000E+00   2.73152852296607E-08  -7.55484424019629E-16   2.73152844741763E-08
     -1.02499164247744E-16  -7.46063182222222E-02  -7.46063182222222E-02   0.00000000000000E+00   0.00000000000000E+00
     -2.73152795861572E-08  -4.88936870670209E-15  -2.73152844755259E-08  -1.30816129752541E-16
      1.45649125925926E-01
      0.00000000000000E+00   0.00000000000000E+00   0.00000000000000E+00   0.00000000000000E+00   0.00000000000000E+00
      0.00000000000000E+00   0.00000000000000E+00   2.46431028243097E-16   0.00000000000000E+00   0.00000000000000E+00
      0.00000000000000E+00   0.00000000000000E+00   2.90553402938046E-08  -9.91897588095787E-17   2.90553401946148E-08
     -1.02474780077636E-16  -1.13606318222222E-01  -1.13606318222222E-01   0.00000000000000E+00   0.00000000000000E+00
     -2.90553845367834E-08   4.43137108973622E-14  -2.90553402230725E-08  -1.45185994444502E-16
      1.95649125925926E-01
      0.00000000000000E+00   0.00000000000000E+00   0.00000000000000E+00   0.00000000000000E+00   0.00000000000000E+00
      0.00000000000000E+00   0.00000000000000E+00   2.60664058329235E-16   0.00000000000000E+00   0.00000000000000E+00
      0.00000000000000E+00   0.00000000000000E+00   3.07732140066064E-08   1.90445415348727E-15   3.07732159110606E-08
     -1.02450807598111E-16  -1.52606318222222E-01  -1.52606318222222E-01   0.00000000000000E+00   0.00000000000000E+00
     -3.07732214904505E-08   1.02011166753286E-14  -3.07732112893339E-08  -1.59442227697874E-16
      2.45649125925926E-01
      0.00000000000000E+00   0.00000000000000E+00   0.00000000000000E+00   0.00000000000000E+00   0.00000000000000E+00
      0.00000000000000E+00   0.00000000000000E+00   2.74794168306574E-16   0.00000000000000E+00   0.00000000000000E+00
      0.00000000000000E+00   0.00000000000000E+00   3.24759608925834E-08  -1.85845979704806E-17   3.24759608739988E-08
     -1.02427193705125E-16  -1.91606318222222E-01  -1.91606318222222E-01   0.00000000000000E+00   0.00000000000000E+00
     -3.24759608835631E-08   9.57733642555987E-18  -3.24759608739858E-08  -1.73596033051004E-16
      2.95649125925926E-01
      0.00000000000000E+00   0.00000000000000E+00   0.00000000000000E+00   0.00000000000000E+00   0.00000000000000E+00
      0.00000000000000E+00   0.00000000000000E+00   2.88831173009909E-16   0.00000000000000E+00   0.00000000000000E+00
      0.00000000000000E+00   0.00000000000000E+00   3.41687429814679E-08  -5.06598941254494E-15   3.41687379154785E-08
     -1.02403898533703E-16  -2.30606318222222E-01  -2.30606318222222E-01   0.00000000000000E+00   0.00000000000000E+00
     -3.41687123713939E-08  -1.60719292221605E-14  -3.41687284433231E-08  -1.87656739400413E-16
      3.45649125925926E-01
      0.00000000000000E+00   0.00000000000000E+00   0.00000000000000E+00   0.00000000000000E+00   0.00000000000000E+00
      0.00000000000000E+00   0.00000000000000E+00   3.02783022781205E-16   0.00000000000000E+00   0.00000000000000E+00
      0.00000000000000E+00   0.00000000000000E+00   3.58554933325181E-08   1.24156125585069E-17   3.58554933449337E-08
     -1.02380890570139E-16  -2.69606318222222E-01  -2.69606318222222E-01   0.00000000000000E+00   0.00000000000000E+00
     -3.58554933691887E-08   2.39578357527363E-17  -3.58554933452308E-08  -2.01632118951833E-16
      3.95649125925926E-01
      0.00000000000000E+00   0.00000000000000E+00   0.00000000000000E+00   0.00000000000000E+00   0.00000000000000E+00
      0.00000000000000E+00   0.00000000000000E+00   3.16656296176325E-16   0.00000000000000E+00   0.00000000000000E+00
      0.00000000000000E+00   0.00000000000000E+00   3.75393291735263E-08  -8.39477223908531E-18   3.75393291651315E-08
     -1.02358144140539E-16  -3.08606318222222E-01  -3.08606318222222E-01   0.00000000000000E+00   0.00000000000000E+00
     -3.75393288669812E-08  -1.97609960418788E-16  -3.75393290645911E-08  -2.15528660843661E-16
      4.45649125925926E-01
      0.00000000000000E+00   0.00000000000000E+00   0.00000000000000E+00   0.00000000000000E+00   0.00000000000000E+00
      0.00000000000000E+00   0.00000000000000E+00   3.30456522135048E-16   0.00000000000000E+00   0.00000000000000E+00
      0.00000000000000E+00   0.00000000000000E+00   3.92227338426840E-08   3.97336231193961E-17   3.92227338824176E-08
     -1.02335637895776E-16  -3.47606318222222E-01  -3.47606318222222E-01   0.00000000000000E+00   0.00000000000000E+00
     -3.92227353462750E-08   5.74943497584595E-14  -3.92226778519252E-08  -2.29351890534807E-16
      4.95649125925926E-01
      0.00000000000000E+00   0.00000000000000E+00   0.00000000000000E+00   0.00000000000000E+00   0.00000000000000E+00
      0.00000000000000E+00   0.00000000000000E+00   3.44188406624654E-16   0.00000000000000E+00   0.00000000000000E+00
      0.00000000000000E+00   0.00000000000000E+00   4.09077376784434E-08  -1.44025385461737E-16   4.09077375344180E-08
     -1.02313353793704E-16  -3.86606318222222E-01  -3.86606318222222E-01   0.00000000000000E+00   0.00000000000000E+00
     -4.09077376055908E-08   2.55318583482442E-12  -4.09051844197560E-08  -2.43106571390644E-16
      5.45649125925926E-01
      0.00000000000000E+00   0.00000000000000E+00   0.00000000000000E+00   0.00000000000000E+00   0.00000000000000E+00
      0.00000000000000E+00   0.00000000000000E+00   3.57855996546279E-16   0.00000000000000E+00   0.00000000000000E+00
      0.00000000000000E+00   0.00000000000000E+00   4.25960266362417E-08  -2.86241338453847E-17   4.25960266076176E-08
     -1.02291276387145E-16  -4.25606318222222E-01  -4.25606318222222E-01   0.00000000000000E+00   0.00000000000000E+00
     -4.25960265312833E-08   6.93506400610265E-16  -4.25960258377769E-08  -2.56796760012956E-16
      5.95649125925926E-01
      0.00000000000000E+00   0.00000000000000E+00   0.00000000000000E+00   0.00000000000000E+00   0.00000000000000E+00
      0.00000000000000E+00   0.00000000000000E+00   3.71462797164350E-16   0.00000000000000E+00   0.00000000000000E+00
      0.00000000000000E+00   0.00000000000000E+00   4.42890024763981E-08   1.25361982751625E-15   4.42890037300179E-08
     -1.02269392347553E-16  -4.64606318222222E-01  -4.64606318222222E-01   0.00000000000000E+00   0.00000000000000E+00
     -4.42890300669773E-08   2.97781114053958E-14  -4.42890002888659E-08  -2.70425967095540E-16
      6.45649125925926E-01
      0.00000000000000E+00   0.00000000000000E+00   0.00000000000000E+00   0.00000000000000E+00   0.00000000000000E+00
      0.00000000000000E+00   0.00000000000000E+00   3.85011874923412E-16   0.00000000000000E+00   0.00000000000000E+00
      0.00000000000000E+00   0.00000000000000E+00   4.59878661139224E-08  -1.13596683017449E-15   4.59878649779556E-08
     -1.02247689995121E-16  -5.03606318222222E-01  -5.03606318222222E-01   0.00000000000000E+00   0.00000000000000E+00
     -4.59878715629011E-08   6.82519173395961E-15  -4.59878647377094E-08  -2.83997263834663E-16
      6.95649125925926E-01
      0.00000000000000E+00   0.00000000000000E+00   0.00000000000000E+00   0.00000000000000E+00   0.00000000000000E+00
      0.00000000000000E+00   0.00000000000000E+00   3.98505919245080E-16   0.00000000000000E+00   0.00000000000000E+00
      0.00000000000000E+00   0.00000000000000E+00   4.76936289082936E-08  -3.22461769934852E-18   4.76936289050690E-08
     -1.02226159083134E-16  -5.42606318222222E-01  -5.42606318222222E-01   0.00000000000000E+00   0.00000000000000E+00
     -4.76936289674839E-08   6.59036203420581E-17  -4.76936289015803E-08  -2.97513352754319E-16
      7.45649125925926E-01
      0.00000000000000E+00   0.00000000000000E+00   0.00000000000000E+00   0.00000000000000E+00   0.00000000000000E+00
      0.00000000000000E+00   0.00000000000000E+00   4.11947303102034E-16   0.00000000000000E+00   0.00000000000000E+00
      0.00000000000000E+00   0.00000000000000E+00   4.94071722550312E-08   6.69417734194044E-17   4.94071723219730E-08
     -1.02204790539362E-16  -5.81606318222222E-01  -5.81606318222222E-01   0.00000000000000E+00   0.00000000000000E+00
     -4.94071708840865E-08  -1.43602689522960E-15  -4.94071723201134E-08  -3.10976620873569E-16
      7.95649125925926E-01
      0.00000000000000E+00   0.00000000000000E+00   0.00000000000000E+00   0.00000000000000E+00   0.00000000000000E+00
      0.00000000000000E+00   0.00000000000000E+00   4.25338130928323E-16   0.00000000000000E+00   0.00000000000000E+00
      0.00000000000000E+00   0.00000000000000E+00   5.11292576382066E-08  -7.72658507101721E-16   5.11292568655481E-08
     -1.02183576264847E-16  -6.20606318222222E-01  -6.20606318222222E-01   0.00000000000000E+00   0.00000000000000E+00
     -5.11292567631617E-08   6.01368031645861E-16  -5.11292561617937E-08  -3.24389181419810E-16
      8.45649125925926E-01
      0.00000000000000E+00   0.00000000000000E+00   0.00000000000000E+00   0.00000000000000E+00   0.00000000000000E+00
      0.00000000000000E+00   0.00000000000000E+00   4.38680272421967E-16   0.00000000000000E+00   0.00000000000000E+00
      0.00000000000000E+00   0.00000000000000E+00   5.28605481355975E-08  -5.59073138792123E-16   5.28605475765244E-08
     -1.02162508998719E-16  -6.59606318222222E-01  -6.59606318222222E-01   0.00000000000000E+00   0.00000000000000E+00
     -5.28605475471494E-08  -2.23674498009629E-17  -5.28605475695169E-08  -3.37752911965869E-16
      8.95649125925926E-01
      0.00000000000000E+00   0.00000000000000E+00   0.00000000000000E+00   0.00000000000000E+00   0.00000000000000E+00
      0.00000000000000E+00   0.00000000000000E+00   4.51975389594482E-16   0.00000000000000E+00   0.00000000000000E+00
      0.00000000000000E+00   0.00000000000000E+00   5.46016269510630E-08  -1.44085469166311E-16   5.46016268069775E-08
     -1.02141582216944E-16  -6.98606318222222E-01  -6.98606318222222E-01   0.00000000000000E+00   0.00000000000000E+00
     -5.46016265660589E-08  -2.40969326727692E-16  -5.46016268070282E-08  -3.51069479596162E-16
      9.45649125925926E-01
      0.00000000000000E+00   0.00000000000000E+00   0.00000000000000E+00   0.00000000000000E+00   0.00000000000000E+00
      0.00000000000000E+00   0.00000000000000E+00   4.65224965402435E-16   0.00000000000000E+00   0.00000000000000E+00
      0.00000000000000E+00   0.00000000000000E+00   5.63530088878376E-08  -1.33480900627500E-16   5.63530087543567E-08
     -1.02120790013522E-16  -7.37606318222222E-01  -7.37606318222222E-01   0.00000000000000E+00   0.00000000000000E+00
     -5.63530089156839E-08   1.61004187043038E-16  -5.63530087546797E-08  -3.64340372451863E-16
      9.95649125925926E-01
      0.00000000000000E+00   0.00000000000000E+00   0.00000000000000E+00   0.00000000000000E+00   0.00000000000000E+00
      0.00000000000000E+00   0.00000000000000E+00   4.78430324273583E-16   0.00000000000000E+00   0.00000000000000E+00
      0.00000000000000E+00   0.00000000000000E+00   5.81151494587740E-08  -5.39283041215902E-16   5.81151489194910E-08
     -1.02100127031412E-16  -7.76606318222222E-01  -7.76606318222222E-01   0.00000000000000E+00   0.00000000000000E+00
     -5.81151552743947E-08   6.35171650067999E-15  -5.81151489226782E-08  -3.77566920406093E-16
      1.00000000000000E+00
      0.00000000000000E+00   0.00000000000000E+00   0.00000000000000E+00   0.00000000000000E+00   0.00000000000000E+00
      0.00000000000000E+00   0.00000000000000E+00   4.79577370029088E-16   0.00000000000000E+00   0.00000000000000E+00
      0.00000000000000E+00   0.00000000000000E+00   5.82690082641468E-08   1.02414787530881E-16   5.82690083665616E-08
     -1.02098334939135E-16  -7.80000000000000E-01  -7.80000000000000E-01   0.00000000000000E+00   0.00000000000000E+00
     -5.82690077308590E-08  -6.35034188643657E-16  -5.82690083658932E-08  -3.78715804106828E-16
}
