DF-ISE text

Info {
  version   = 1.0
  type      = xyplot
  datasets  = [
    "time"
    "gate OuterVoltage" "gate InnerVoltage" "gate QuasiFermiPotential" "gate DisplacementCurrent" "gate eCurrent"
    "gate hCurrent" "gate TotalCurrent" "gate Charge" "source OuterVoltage" "source InnerVoltage"
    "source QuasiFermiPotential" "source DisplacementCurrent" "source eCurrent" "source hCurrent" "source TotalCurrent"
    "source Charge" "drain OuterVoltage" "drain InnerVoltage" "drain QuasiFermiPotential" "drain DisplacementCurrent"
    "drain eCurrent" "drain hCurrent" "drain TotalCurrent" "drain Charge" ]
  functions = [
    Time
    OuterVoltage InnerVoltage QuasiFermiPotential DisplacementCurrent eCurrent
    hCurrent TotalCurrent Charge OuterVoltage InnerVoltage
    QuasiFermiPotential DisplacementCurrent eCurrent hCurrent TotalCurrent
    Charge OuterVoltage InnerVoltage QuasiFermiPotential DisplacementCurrent
    eCurrent hCurrent TotalCurrent Charge ]
}

Data {
      0.00000000000000E+00
      0.00000000000000E+00   0.00000000000000E+00   0.00000000000000E+00   0.00000000000000E+00   0.00000000000000E+00
      0.00000000000000E+00   0.00000000000000E+00  -1.68470423264945E-16   0.00000000000000E+00   0.00000000000000E+00
      0.00000000000000E+00   0.00000000000000E+00  -8.39238648553079E-21  -4.58107943407573E-32  -8.39238648557660E-21
      8.47936499180583E-17   0.00000000000000E+00   0.00000000000000E+00   0.00000000000000E+00   0.00000000000000E+00
     -1.43309234268447E-19  -3.67740094833318E-32  -1.43309234268483E-19   8.50973114048096E-17
      0.00000000000000E+00
      0.00000000000000E+00   0.00000000000000E+00   0.00000000000000E+00   0.00000000000000E+00   0.00000000000000E+00
      0.00000000000000E+00   0.00000000000000E+00  -1.68470419352916E-16   0.00000000000000E+00   0.00000000000000E+00
      0.00000000000000E+00   0.00000000000000E+00  -1.19343552549366E-17   5.74293584455101E-30  -1.19343552549308E-17
      8.47936481986089E-17   0.00000000000000E+00   0.00000000000000E+00   0.00000000000000E+00   0.00000000000000E+00
      6.79090124602010E-18   1.16832329811548E-29   6.79090124603178E-18   8.50973094923254E-17
      0.00000000000000E+00
      0.00000000000000E+00   0.00000000000000E+00   0.00000000000000E+00   0.00000000000000E+00   0.00000000000000E+00
      0.00000000000000E+00   0.00000000000000E+00  -1.68470419352917E-16   0.00000000000000E+00   0.00000000000000E+00
      0.00000000000000E+00   0.00000000000000E+00   6.21817215625500E-20   3.80745480146734E-34   6.21817215625504E-20
      8.47936481986099E-17   0.00000000000000E+00   0.00000000000000E+00   0.00000000000000E+00   0.00000000000000E+00
      1.22632698438571E-19   5.82022056538147E-34   1.22632698438572E-19   8.50973094923264E-17
      1.00000000000000E-03
      0.00000000000000E+00   0.00000000000000E+00   0.00000000000000E+00   0.00000000000000E+00   0.00000000000000E+00
      0.00000000000000E+00   0.00000000000000E+00  -1.68489941769523E-16   0.00000000000000E+00   0.00000000000000E+00
      0.00000000000000E+00   0.00000000000000E+00  -1.28761699257771E-09   1.05600481210355E-27  -1.28761699257771E-09
      8.47936307373482E-17   5.00000000000000E-05   5.00000000000000E-05   0.00000000000000E+00   0.00000000000000E+00
      1.24058332502611E-09  -2.34259543117568E-25   1.24058332502611E-09   8.51167091418689E-17
      3.00000000000000E-03
      0.00000000000000E+00   0.00000000000000E+00   0.00000000000000E+00   0.00000000000000E+00   0.00000000000000E+00
      0.00000000000000E+00   0.00000000000000E+00  -1.68528984370134E-16   0.00000000000000E+00   0.00000000000000E+00
      0.00000000000000E+00   0.00000000000000E+00  -3.83259564457443E-09  -1.24472051166778E-29  -3.83259564457443E-09
      8.47935957684502E-17   1.50000000000000E-04   1.50000000000000E-04   0.00000000000000E+00   0.00000000000000E+00
      3.83259478342788E-09  -2.16416196439252E-29   3.83259478342788E-09   8.51555070962342E-17
      7.00000000000000E-03
      0.00000000000000E+00   0.00000000000000E+00   0.00000000000000E+00   0.00000000000000E+00   0.00000000000000E+00
      0.00000000000000E+00   0.00000000000000E+00  -1.68607064119757E-16   0.00000000000000E+00   0.00000000000000E+00
      0.00000000000000E+00   0.00000000000000E+00  -8.84928252838590E-09  -1.32941237091563E-28  -8.84928252838590E-09
      8.47935257203145E-17   3.50000000000000E-04   3.50000000000000E-04   0.00000000000000E+00   0.00000000000000E+00
      8.84928165846129E-09   5.66417696690459E-28   8.84928165846129E-09   8.52330997154170E-17
      1.50000000000000E-02
      0.00000000000000E+00   0.00000000000000E+00   0.00000000000000E+00   0.00000000000000E+00   0.00000000000000E+00
      0.00000000000000E+00   0.00000000000000E+00  -1.68763199869155E-16   0.00000000000000E+00   0.00000000000000E+00
      0.00000000000000E+00   0.00000000000000E+00  -1.85707973678368E-08   1.25420396920124E-28  -1.85707973678368E-08
      8.47933851568071E-17   7.50000000000000E-04   7.50000000000000E-04   0.00000000000000E+00   0.00000000000000E+00
      1.85707986240159E-08   3.13140028014538E-28   1.85707986240159E-08   8.53882705891457E-17
      3.10000000000000E-02
      0.00000000000000E+00   0.00000000000000E+00   0.00000000000000E+00   0.00000000000000E+00   0.00000000000000E+00
      0.00000000000000E+00   0.00000000000000E+00  -1.69075376701741E-16   0.00000000000000E+00   0.00000000000000E+00
      0.00000000000000E+00   0.00000000000000E+00  -3.68271081312703E-08   6.03302708950430E-28  -3.68271081312703E-08
      8.47931022821920E-17   1.55000000000000E-03   1.55000000000000E-03   0.00000000000000E+00   0.00000000000000E+00
      3.68271267694083E-08   1.46391847483314E-27   3.68271267694083E-08   8.56985547909007E-17
      6.30000000000000E-02
      0.00000000000000E+00   0.00000000000000E+00   0.00000000000000E+00   0.00000000000000E+00   0.00000000000000E+00
      0.00000000000000E+00   0.00000000000000E+00  -1.69699354388237E-16   0.00000000000000E+00   0.00000000000000E+00
      0.00000000000000E+00   0.00000000000000E+00  -6.90384733576043E-08   2.62525457198962E-27  -6.90384733576043E-08
      8.47925304255807E-17   3.15000000000000E-03   3.15000000000000E-03   0.00000000000000E+00   0.00000000000000E+00
      6.90387296140483E-08   5.97000514012168E-27   6.90387296140483E-08   8.63188924108632E-17
      1.13000000000000E-01
      0.00000000000000E+00   0.00000000000000E+00   0.00000000000000E+00   0.00000000000000E+00   0.00000000000000E+00
      0.00000000000000E+00   0.00000000000000E+00  -1.70673328661155E-16   0.00000000000000E+00   0.00000000000000E+00
      0.00000000000000E+00   0.00000000000000E+00  -1.09679088050906E-07   8.90005340605493E-27  -1.09679088050906E-07
      8.47916240812576E-17   5.65000000000000E-03   5.65000000000000E-03   0.00000000000000E+00   0.00000000000000E+00
      1.09680487375030E-07   1.77468880136309E-26   1.09680487375030E-07   8.72875518118785E-17
      1.63000000000000E-01
      0.00000000000000E+00   0.00000000000000E+00   0.00000000000000E+00   0.00000000000000E+00   0.00000000000000E+00
      0.00000000000000E+00   0.00000000000000E+00  -1.71646115899844E-16   0.00000000000000E+00   0.00000000000000E+00
      0.00000000000000E+00   0.00000000000000E+00  -1.40891046109460E-07   1.90342083860221E-26  -1.40891046109460E-07
      8.47907065890502E-17   8.15000000000000E-03   8.15000000000000E-03   0.00000000000000E+00   0.00000000000000E+00
      1.40892500462431E-07   3.49736185646145E-26   1.40892500462431E-07   8.82554552739233E-17
      2.13000000000000E-01
      0.00000000000000E+00   0.00000000000000E+00   0.00000000000000E+00   0.00000000000000E+00   0.00000000000000E+00
      0.00000000000000E+00   0.00000000000000E+00  -1.72617740345593E-16   0.00000000000000E+00   0.00000000000000E+00
      0.00000000000000E+00   0.00000000000000E+00  -1.64805938379720E-07   3.32873920894482E-26  -1.64805938379720E-07
      8.47897818275733E-17   1.06500000000000E-02   1.06500000000000E-02   0.00000000000000E+00   0.00000000000000E+00
      1.64806937665998E-07   5.65077757207912E-26   1.64806937665998E-07   8.92226018329329E-17
      2.63000000000000E-01
      0.00000000000000E+00   0.00000000000000E+00   0.00000000000000E+00   0.00000000000000E+00   0.00000000000000E+00
      0.00000000000000E+00   0.00000000000000E+00  -1.73588226210748E-16   0.00000000000000E+00   0.00000000000000E+00
      0.00000000000000E+00   0.00000000000000E+00  -1.83067854690832E-07   5.12591268478916E-26  -1.83067854690832E-07
      8.47888526458964E-17   1.31500000000000E-02   1.31500000000000E-02   0.00000000000000E+00   0.00000000000000E+00
      1.83068589689877E-07   8.34837765370315E-26   1.83068589689877E-07   9.01889917725483E-17
      3.13000000000000E-01
      0.00000000000000E+00   0.00000000000000E+00   0.00000000000000E+00   0.00000000000000E+00   0.00000000000000E+00
      0.00000000000000E+00   0.00000000000000E+00  -1.74557597680028E-16   0.00000000000000E+00   0.00000000000000E+00
      0.00000000000000E+00   0.00000000000000E+00  -1.96940952644934E-07  -6.19727676548260E-26  -1.96940952644934E-07
      8.47879210826797E-17   1.56500000000000E-02   1.56500000000000E-02   0.00000000000000E+00   0.00000000000000E+00
      1.96940952630132E-07   2.76667842866315E-26   1.96940952630132E-07   9.11546263469033E-17
      3.63000000000000E-01
      0.00000000000000E+00   0.00000000000000E+00   0.00000000000000E+00   0.00000000000000E+00   0.00000000000000E+00
      0.00000000000000E+00   0.00000000000000E+00  -1.75525878624559E-16   0.00000000000000E+00   0.00000000000000E+00
      0.00000000000000E+00   0.00000000000000E+00  -2.07443182403825E-07  -2.29122985605186E-26  -2.07443182403825E-07
      8.47869886997250E-17   1.81500000000000E-02   1.81500000000000E-02   0.00000000000000E+00   0.00000000000000E+00
      2.07443182396319E-07   2.55884025704177E-27   2.07443182396319E-07   9.21195075357336E-17
      4.13000000000000E-01
      0.00000000000000E+00   0.00000000000000E+00   0.00000000000000E+00   0.00000000000000E+00   0.00000000000000E+00
      0.00000000000000E+00   0.00000000000000E+00  -1.76493092832566E-16   0.00000000000000E+00   0.00000000000000E+00
      0.00000000000000E+00   0.00000000000000E+00  -2.15348390785825E-07   2.01530041590143E-27  -2.15348390785825E-07
      8.47860565481999E-17   2.06500000000000E-02   2.06500000000000E-02   0.00000000000000E+00   0.00000000000000E+00
      2.15348390786733E-07   3.07386276929013E-27   2.15348390786733E-07   9.30836379403816E-17
      4.63000000000000E-01
      0.00000000000000E+00   0.00000000000000E+00   0.00000000000000E+00   0.00000000000000E+00   0.00000000000000E+00
      0.00000000000000E+00   0.00000000000000E+00  -1.77459263756761E-16   0.00000000000000E+00   0.00000000000000E+00
      0.00000000000000E+00   0.00000000000000E+00  -2.21275602454244E-07   3.63028708034859E-28  -2.21275602454244E-07
      8.47851253939964E-17   2.31500000000000E-02   2.31500000000000E-02   0.00000000000000E+00   0.00000000000000E+00
      2.21275602466133E-07   1.19607677144386E-26   2.21275602466133E-07   9.40470206297940E-17
      5.13000000000000E-01
      0.00000000000000E+00   0.00000000000000E+00   0.00000000000000E+00   0.00000000000000E+00   0.00000000000000E+00
      0.00000000000000E+00   0.00000000000000E+00  -1.78424414545135E-16   0.00000000000000E+00   0.00000000000000E+00
      0.00000000000000E+00   0.00000000000000E+00  -2.25713340071532E-07  -1.30859350495810E-27  -2.25713340071532E-07
      8.47841957643521E-17   2.56500000000000E-02   2.56500000000000E-02   0.00000000000000E+00   0.00000000000000E+00
      2.25713340069205E-07   9.19369255163262E-28   2.25713340069205E-07   9.50096590583716E-17
      5.63000000000000E-01
      0.00000000000000E+00   0.00000000000000E+00   0.00000000000000E+00   0.00000000000000E+00   0.00000000000000E+00
      0.00000000000000E+00   0.00000000000000E+00  -1.79388567997840E-16   0.00000000000000E+00   0.00000000000000E+00
      0.00000000000000E+00   0.00000000000000E+00  -2.29045730957520E-07  -3.54701313412799E-28  -2.29045730957520E-07
      8.47832680065029E-17   2.81500000000000E-02   2.81500000000000E-02   0.00000000000000E+00   0.00000000000000E+00
      2.29045730950801E-07  -5.62181751582266E-28   2.29045730950801E-07   9.59715569936096E-17
      6.13000000000000E-01
      0.00000000000000E+00   0.00000000000000E+00   0.00000000000000E+00   0.00000000000000E+00   0.00000000000000E+00
      0.00000000000000E+00   0.00000000000000E+00  -1.80351746502625E-16   0.00000000000000E+00   0.00000000000000E+00
      0.00000000000000E+00   0.00000000000000E+00  -2.31572395207353E-07   1.82832555443014E-27  -2.31572395207353E-07
      8.47823423326621E-17   3.06500000000000E-02   3.06500000000000E-02   0.00000000000000E+00   0.00000000000000E+00
      2.31572395203413E-07   2.30615131676679E-27   2.31572395203413E-07   9.69327184577596E-17
      6.63000000000000E-01
      0.00000000000000E+00   0.00000000000000E+00   0.00000000000000E+00   0.00000000000000E+00   0.00000000000000E+00
      0.00000000000000E+00   0.00000000000000E+00  -1.81313971944612E-16   0.00000000000000E+00   0.00000000000000E+00
      0.00000000000000E+00   0.00000000000000E+00  -2.33524021464371E-07  -2.48952915859353E-28  -2.33524021464371E-07
      8.47814188550844E-17   3.31500000000000E-02   3.31500000000000E-02   0.00000000000000E+00   0.00000000000000E+00
      2.33524021462845E-07   6.13341593041614E-27   2.33524021462845E-07   9.78931476806192E-17
      7.13000000000000E-01
      0.00000000000000E+00   0.00000000000000E+00   0.00000000000000E+00   0.00000000000000E+00   0.00000000000000E+00
      0.00000000000000E+00   0.00000000000000E+00  -1.82275265593431E-16   0.00000000000000E+00   0.00000000000000E+00
      0.00000000000000E+00   0.00000000000000E+00  -2.35075021184130E-07   8.95133328981650E-28  -2.35075021184130E-07
      8.47804976138941E-17   3.56500000000000E-02   3.56500000000000E-02   0.00000000000000E+00   0.00000000000000E+00
      2.35075021185626E-07   8.84208950329638E-27   2.35075021185626E-07   9.88528490610547E-17
      7.63000000000000E-01
      0.00000000000000E+00   0.00000000000000E+00   0.00000000000000E+00   0.00000000000000E+00   0.00000000000000E+00
      0.00000000000000E+00   0.00000000000000E+00  -1.83235647978960E-16   0.00000000000000E+00   0.00000000000000E+00
      0.00000000000000E+00   0.00000000000000E+00  -2.36354214271624E-07  -4.79723311502589E-28  -2.36354214271624E-07
      8.47795785992906E-17   3.81500000000000E-02   3.81500000000000E-02   0.00000000000000E+00   0.00000000000000E+00
      2.36354214271838E-07   7.89071753636293E-27   2.36354214271838E-07   9.98118271358965E-17
      8.13000000000000E-01
      0.00000000000000E+00   0.00000000000000E+00   0.00000000000000E+00   0.00000000000000E+00   0.00000000000000E+00
      0.00000000000000E+00   0.00000000000000E+00  -1.84195138772509E-16   0.00000000000000E+00   0.00000000000000E+00
      0.00000000000000E+00   0.00000000000000E+00  -2.37454113465575E-07   4.93916972113327E-27  -2.37454113465575E-07
      8.47786617690885E-17   4.06500000000000E-02   4.06500000000000E-02   0.00000000000000E+00   0.00000000000000E+00
      2.37454113463138E-07   5.18557396277594E-27   2.37454113463138E-07   1.00770086555028E-16
      8.63000000000000E-01
      0.00000000000000E+00   0.00000000000000E+00   0.00000000000000E+00   0.00000000000000E+00   0.00000000000000E+00
      0.00000000000000E+00   0.00000000000000E+00  -1.85153756691311E-16   0.00000000000000E+00   0.00000000000000E+00
      0.00000000000000E+00   0.00000000000000E+00  -2.38439060656213E-07   2.35969548381674E-27  -2.38439060656213E-07
      8.47777470622685E-17   4.31500000000000E-02   4.31500000000000E-02   0.00000000000000E+00   0.00000000000000E+00
      2.38439060653292E-07   1.08277046525539E-26   2.38439060653292E-07   1.01727632061563E-16
      9.13000000000000E-01
      0.00000000000000E+00   0.00000000000000E+00   0.00000000000000E+00   0.00000000000000E+00   0.00000000000000E+00
      0.00000000000000E+00   0.00000000000000E+00  -1.86111519439981E-16   0.00000000000000E+00   0.00000000000000E+00
      0.00000000000000E+00   0.00000000000000E+00  -2.39352258120956E-07   8.27232853514459E-28  -2.39352258120956E-07
      8.47768344089522E-17   4.56500000000000E-02   4.56500000000000E-02   0.00000000000000E+00   0.00000000000000E+00
      2.39352258121020E-07   1.60896578226857E-26   2.39352258121020E-07   1.02684468476072E-16
      9.63000000000000E-01
      0.00000000000000E+00   0.00000000000000E+00   0.00000000000000E+00   0.00000000000000E+00   0.00000000000000E+00
      0.00000000000000E+00   0.00000000000000E+00  -1.87068443694664E-16   0.00000000000000E+00   0.00000000000000E+00
      0.00000000000000E+00   0.00000000000000E+00  -2.40221649959742E-07   9.65018986587421E-28  -2.40221649959742E-07
      8.47759237372670E-17   4.81500000000000E-02   4.81500000000000E-02   0.00000000000000E+00   0.00000000000000E+00
      2.40221649958707E-07   1.50716119448018E-26   2.40221649958707E-07   1.03640600683798E-16
      1.00000000000000E+00
      0.00000000000000E+00   0.00000000000000E+00   0.00000000000000E+00   0.00000000000000E+00   0.00000000000000E+00
      0.00000000000000E+00   0.00000000000000E+00  -1.87776037193992E-16   0.00000000000000E+00   0.00000000000000E+00
      0.00000000000000E+00   0.00000000000000E+00  -2.40847505348065E-07   1.16286390603311E-26  -2.40847505348065E-07
      8.47752510740942E-17   5.00000000000000E-02   5.00000000000000E-02   0.00000000000000E+00   0.00000000000000E+00
      2.40847508093211E-07   5.42404203713995E-27   2.40847508093211E-07   1.04347688037335E-16
}
