DF-ISE text

Info {
  version   = 1.0
  type      = xyplot
  datasets  = [
    "time"
    "gate OuterVoltage" "gate InnerVoltage" "gate QuasiFermiPotential" "gate DisplacementCurrent" "gate eCurrent"
    "gate hCurrent" "gate TotalCurrent" "gate Charge" "source OuterVoltage" "source InnerVoltage"
    "source QuasiFermiPotential" "source DisplacementCurrent" "source eCurrent" "source hCurrent" "source TotalCurrent"
    "source Charge" "drain OuterVoltage" "drain InnerVoltage" "drain QuasiFermiPotential" "drain DisplacementCurrent"
    "drain eCurrent" "drain hCurrent" "drain TotalCurrent" "drain Charge" ]
  functions = [
    Time
    OuterVoltage InnerVoltage QuasiFermiPotential DisplacementCurrent eCurrent
    hCurrent TotalCurrent Charge OuterVoltage InnerVoltage
    QuasiFermiPotential DisplacementCurrent eCurrent hCurrent TotalCurrent
    Charge OuterVoltage InnerVoltage QuasiFermiPotential DisplacementCurrent
    eCurrent hCurrent TotalCurrent Charge ]
}

Data {
      0.00000000000000E+00
      0.00000000000000E+00   0.00000000000000E+00   0.00000000000000E+00   0.00000000000000E+00   0.00000000000000E+00
      0.00000000000000E+00   0.00000000000000E+00   2.19966009358064E-16   0.00000000000000E+00   0.00000000000000E+00
      0.00000000000000E+00   0.00000000000000E+00   2.85692658136313E-18  -3.44240900351047E-18  -5.85482422147340E-19
     -1.10609806368168E-16   0.00000000000000E+00   0.00000000000000E+00   0.00000000000000E+00   0.00000000000000E+00
      4.32235532874193E-19  -4.48062666342868E-19  -1.58271334686743E-20  -1.10551577306656E-16
      0.00000000000000E+00
      0.00000000000000E+00   0.00000000000000E+00   0.00000000000000E+00   0.00000000000000E+00   0.00000000000000E+00
      0.00000000000000E+00   0.00000000000000E+00   2.19965965889889E-16   0.00000000000000E+00   0.00000000000000E+00
      0.00000000000000E+00   0.00000000000000E+00   4.00094638896173E-18  -2.31278288236866E-17  -1.91268824347248E-17
     -1.10609784511322E-16   0.00000000000000E+00   0.00000000000000E+00   0.00000000000000E+00   0.00000000000000E+00
     -2.97426629408024E-17   2.82163777960741E-17  -1.52628514472823E-18  -1.10551555750047E-16
      0.00000000000000E+00
      0.00000000000000E+00   0.00000000000000E+00   0.00000000000000E+00   0.00000000000000E+00   0.00000000000000E+00
      0.00000000000000E+00   0.00000000000000E+00   2.19965965889842E-16   0.00000000000000E+00   0.00000000000000E+00
      0.00000000000000E+00   0.00000000000000E+00   9.14234392905867E-18  -9.12445943142729E-18   1.78844976313755E-20
     -1.10609784511298E-16   0.00000000000000E+00   0.00000000000000E+00   0.00000000000000E+00   0.00000000000000E+00
      8.01682202145740E-18  -8.01449619845037E-18   2.32582300702917E-21  -1.10551555750024E-16
      1.00000000000000E-03
      0.00000000000000E+00   0.00000000000000E+00   0.00000000000000E+00   0.00000000000000E+00   0.00000000000000E+00
      0.00000000000000E+00   0.00000000000000E+00   2.20225960368306E-16   0.00000000000000E+00   0.00000000000000E+00
      0.00000000000000E+00   0.00000000000000E+00   9.31661557416952E-10  -6.24565596179759E-16   9.31660932851355E-10
     -1.10609593080836E-16  -6.50000000000000E-04  -6.50000000000000E-04   0.00000000000000E+00   0.00000000000000E+00
     -9.31660967532489E-10   6.26869997963458E-14  -9.31598280532693E-10  -1.10811465296033E-16
      2.86666666666667E-03
      0.00000000000000E+00   0.00000000000000E+00   0.00000000000000E+00   0.00000000000000E+00   0.00000000000000E+00
      0.00000000000000E+00   0.00000000000000E+00   2.20711115561868E-16   0.00000000000000E+00   0.00000000000000E+00
      0.00000000000000E+00   0.00000000000000E+00   2.56550363912905E-09  -1.61934757859086E-15   2.56550201978147E-09
     -1.10609236012227E-16  -1.86333333333333E-03  -1.86333333333333E-03   0.00000000000000E+00   0.00000000000000E+00
     -2.56550106263002E-09  -1.78734295453567E-15  -2.56550284997297E-09  -1.11296475907012E-16
      6.60000000000000E-03
      0.00000000000000E+00   0.00000000000000E+00   0.00000000000000E+00   0.00000000000000E+00   0.00000000000000E+00
      0.00000000000000E+00   0.00000000000000E+00   2.21680777610758E-16   0.00000000000000E+00   0.00000000000000E+00
      0.00000000000000E+00   0.00000000000000E+00   5.45753431461089E-09  -8.02502012197406E-15   5.45752628959077E-09
     -1.10608522939941E-16  -4.29000000000000E-03  -4.29000000000000E-03   0.00000000000000E+00   0.00000000000000E+00
     -5.45753816194068E-09   4.52363631704252E-16  -5.45753770957705E-09  -1.12265901240089E-16
      1.40666666666667E-02
      0.00000000000000E+00   0.00000000000000E+00   0.00000000000000E+00   0.00000000000000E+00   0.00000000000000E+00
      0.00000000000000E+00   0.00000000000000E+00   2.23617565873739E-16   0.00000000000000E+00   0.00000000000000E+00
      0.00000000000000E+00   0.00000000000000E+00   9.98246604866329E-09   2.10750569699019E-17   9.98246606973835E-09
     -1.10607101130281E-16  -9.14333333333333E-03  -9.14333333333333E-03   0.00000000000000E+00   0.00000000000000E+00
     -9.98246624821030E-09   1.80785767830158E-16  -9.98246606742453E-09  -1.14202410215198E-16
      2.80044444444444E-02
      0.00000000000000E+00   0.00000000000000E+00   0.00000000000000E+00   0.00000000000000E+00   0.00000000000000E+00
      0.00000000000000E+00   0.00000000000000E+00   2.27224239124992E-16   0.00000000000000E+00   0.00000000000000E+00
      0.00000000000000E+00   0.00000000000000E+00   1.52305699682586E-08  -2.32310927517171E-16   1.52305697359477E-08
     -1.10604462584484E-16  -1.82028888888889E-02  -1.82028888888889E-02   0.00000000000000E+00   0.00000000000000E+00
     -1.52305697592160E-08   2.93004279522296E-16  -1.52305694662118E-08  -1.17809158142575E-16
      5.40216296296296E-02
      0.00000000000000E+00   0.00000000000000E+00   0.00000000000000E+00   0.00000000000000E+00   0.00000000000000E+00
      0.00000000000000E+00   0.00000000000000E+00   2.33928852898052E-16   0.00000000000000E+00   0.00000000000000E+00
      0.00000000000000E+00   0.00000000000000E+00   1.91721484332110E-08   7.37869583288161E-15   1.91721558119069E-08
     -1.10599588058198E-16  -3.51140592592593E-02  -3.51140592592593E-02   0.00000000000000E+00   0.00000000000000E+00
     -1.91721621687650E-08   2.96195697327433E-14  -1.91721325491953E-08  -1.24515467848778E-16
      1.02587041975309E-01
      0.00000000000000E+00   0.00000000000000E+00   0.00000000000000E+00   0.00000000000000E+00   0.00000000000000E+00
      0.00000000000000E+00   0.00000000000000E+00   2.46360595765263E-16   0.00000000000000E+00   0.00000000000000E+00
      0.00000000000000E+00   0.00000000000000E+00   2.07414089813647E-08   6.25617556853944E-17   2.07414090439265E-08
     -1.10590634177321E-16  -6.66815772839506E-02  -6.66815772839506E-02   0.00000000000000E+00   0.00000000000000E+00
     -2.07414089910664E-08  -5.28734269418702E-17  -2.07414090439398E-08  -1.36953475650607E-16
      1.52587041975309E-01
      0.00000000000000E+00   0.00000000000000E+00   0.00000000000000E+00   0.00000000000000E+00   0.00000000000000E+00
      0.00000000000000E+00   0.00000000000000E+00   2.59067168550485E-16   0.00000000000000E+00   0.00000000000000E+00
      0.00000000000000E+00   0.00000000000000E+00   2.15129885411774E-08  -3.93140924586959E-14   2.15129492270850E-08
     -1.10581563058126E-16  -9.91815772839506E-02  -9.91815772839506E-02   0.00000000000000E+00   0.00000000000000E+00
     -2.15129296697107E-08  -1.90710339445423E-14  -2.15129487407446E-08  -1.49668264132848E-16
      2.02587041975309E-01
      0.00000000000000E+00   0.00000000000000E+00   0.00000000000000E+00   0.00000000000000E+00   0.00000000000000E+00
      0.00000000000000E+00   0.00000000000000E+00   2.71699700930524E-16   0.00000000000000E+00   0.00000000000000E+00
      0.00000000000000E+00   0.00000000000000E+00   2.22592313776016E-08  -5.18199690565261E-15   2.22592261956047E-08
     -1.10572600592139E-16  -1.31681577283951E-01  -1.31681577283951E-01   0.00000000000000E+00   0.00000000000000E+00
     -2.22592250245333E-08   8.74611068606264E-16  -2.22592241499222E-08  -1.62309581181855E-16
      2.52587041975309E-01
      0.00000000000000E+00   0.00000000000000E+00   0.00000000000000E+00   0.00000000000000E+00   0.00000000000000E+00
      0.00000000000000E+00   0.00000000000000E+00   2.84272476688843E-16   0.00000000000000E+00   0.00000000000000E+00
      0.00000000000000E+00   0.00000000000000E+00   2.29890823142046E-08  -7.95103578088508E-18   2.29890823062535E-08
     -1.10563718636786E-16  -1.64181577283951E-01  -1.64181577283951E-01   0.00000000000000E+00   0.00000000000000E+00
     -2.29890823397425E-08   3.34730544054782E-17  -2.29890823062694E-08  -1.74891303769319E-16
      3.02587041975309E-01
      0.00000000000000E+00   0.00000000000000E+00   0.00000000000000E+00   0.00000000000000E+00   0.00000000000000E+00
      0.00000000000000E+00   0.00000000000000E+00   2.96795372984298E-16   0.00000000000000E+00   0.00000000000000E+00
      0.00000000000000E+00   0.00000000000000E+00   2.37072213841573E-08   1.25387082974049E-17   2.37072213966960E-08
     -1.10554897334108E-16  -1.96681577283951E-01  -1.96681577283951E-01   0.00000000000000E+00   0.00000000000000E+00
     -2.37072213854756E-08  -1.12222970092577E-17  -2.37072213966979E-08  -1.87423166338025E-16
      3.52587041975309E-01
      0.00000000000000E+00   0.00000000000000E+00   0.00000000000000E+00   0.00000000000000E+00   0.00000000000000E+00
      0.00000000000000E+00   0.00000000000000E+00   3.09274907997272E-16   0.00000000000000E+00   0.00000000000000E+00
      0.00000000000000E+00   0.00000000000000E+00   2.44155702142070E-08   1.19533953214108E-17   2.44155702261604E-08
     -1.10546123083676E-16  -2.29181577283951E-01  -2.29181577283951E-01   0.00000000000000E+00   0.00000000000000E+00
     -2.44155702201789E-08  -5.98651864642509E-18  -2.44155702261654E-08  -1.99911646237252E-16
      4.02587041975309E-01
      0.00000000000000E+00   0.00000000000000E+00   0.00000000000000E+00   0.00000000000000E+00   0.00000000000000E+00
      0.00000000000000E+00   0.00000000000000E+00   3.21715156870073E-16   0.00000000000000E+00   0.00000000000000E+00
      0.00000000000000E+00   0.00000000000000E+00   2.51158172705696E-08  -1.01257661224265E-14   2.51158071448034E-08
     -1.10537386881120E-16  -2.61681577283951E-01  -2.61681577283951E-01   0.00000000000000E+00   0.00000000000000E+00
     -2.51157948448019E-08   4.33553404988148E-14  -2.51157514894614E-08  -2.12360811160641E-16
      4.52587041975309E-01
      0.00000000000000E+00   0.00000000000000E+00   0.00000000000000E+00   0.00000000000000E+00   0.00000000000000E+00
      0.00000000000000E+00   0.00000000000000E+00   3.34118487804369E-16   0.00000000000000E+00   0.00000000000000E+00
      0.00000000000000E+00   0.00000000000000E+00   2.58094795824043E-08  -1.81160675800931E-17   2.58094795642882E-08
     -1.10528682948653E-16  -2.94181577283951E-01  -2.94181577283951E-01   0.00000000000000E+00   0.00000000000000E+00
     -2.58094795305423E-08  -3.37669502441179E-17  -2.58094795643092E-08  -2.24773021305525E-16
      5.02587041975309E-01
      0.00000000000000E+00   0.00000000000000E+00   0.00000000000000E+00   0.00000000000000E+00   0.00000000000000E+00
      0.00000000000000E+00   0.00000000000000E+00   3.46486097565712E-16   0.00000000000000E+00   0.00000000000000E+00
      0.00000000000000E+00   0.00000000000000E+00   2.64977328692472E-08  -4.36836009412025E-16   2.64977324324112E-08
     -1.10520007791221E-16  -3.26681577283951E-01  -3.26681577283951E-01   0.00000000000000E+00   0.00000000000000E+00
     -2.64977326331242E-08   3.03914495413468E-16  -2.64977323292097E-08  -2.37149466489746E-16
      5.52587041975309E-01
      0.00000000000000E+00   0.00000000000000E+00   0.00000000000000E+00   0.00000000000000E+00   0.00000000000000E+00
      0.00000000000000E+00   0.00000000000000E+00   3.58818395353855E-16   0.00000000000000E+00   0.00000000000000E+00
      0.00000000000000E+00   0.00000000000000E+00   2.71813640162825E-08   8.50203712182946E-18   2.71813640247845E-08
     -1.10511359505730E-16  -3.59181577283951E-01  -3.59181577283951E-01   0.00000000000000E+00   0.00000000000000E+00
     -2.71813637186512E-08  -3.04649873776001E-16  -2.71813640233010E-08  -2.49490559225221E-16
      6.02587041975309E-01
      0.00000000000000E+00   0.00000000000000E+00   0.00000000000000E+00   0.00000000000000E+00   0.00000000000000E+00
      0.00000000000000E+00   0.00000000000000E+00   3.71115275398947E-16   0.00000000000000E+00   0.00000000000000E+00
      0.00000000000000E+00   0.00000000000000E+00   2.78609556562179E-08   5.54098091406207E-16   2.78609562103160E-08
     -1.10502737276420E-16  -3.91681577283951E-01  -3.91681577283951E-01   0.00000000000000E+00   0.00000000000000E+00
     -2.78609507191527E-08  -5.24286265160755E-15  -2.78609559620153E-08  -2.61796203973436E-16
      6.52587041975309E-01
      0.00000000000000E+00   0.00000000000000E+00   0.00000000000000E+00   0.00000000000000E+00   0.00000000000000E+00
      0.00000000000000E+00   0.00000000000000E+00   3.83376308383529E-16   0.00000000000000E+00   0.00000000000000E+00
      0.00000000000000E+00   0.00000000000000E+00   2.85369834788007E-08   9.56014261650224E-17   2.85369835744021E-08
     -1.10494141010494E-16  -4.24181577283951E-01  -4.24181577283951E-01   0.00000000000000E+00   0.00000000000000E+00
     -2.85369835842765E-08   9.80000829651424E-18  -2.85369835744765E-08  -2.74065976295185E-16
      7.02587041975309E-01
      0.00000000000000E+00   0.00000000000000E+00   0.00000000000000E+00   0.00000000000000E+00   0.00000000000000E+00
      0.00000000000000E+00   0.00000000000000E+00   3.95600866904888E-16   0.00000000000000E+00   0.00000000000000E+00
      0.00000000000000E+00   0.00000000000000E+00   2.92098411099072E-08  -2.71222476533265E-16   2.92098408386847E-08
     -1.10485571106922E-16  -4.56681577283951E-01  -4.56681577283951E-01   0.00000000000000E+00   0.00000000000000E+00
     -2.92098409108228E-08   7.35618609377354E-17  -2.92098408372610E-08  -2.86299249332921E-16
      7.52587041975309E-01
      0.00000000000000E+00   0.00000000000000E+00   0.00000000000000E+00   0.00000000000000E+00   0.00000000000000E+00
      0.00000000000000E+00   0.00000000000000E+00   4.07788208687009E-16   0.00000000000000E+00   0.00000000000000E+00
      0.00000000000000E+00   0.00000000000000E+00   2.98798514324095E-08  -5.24433910260040E-16   2.98798509079756E-08
     -1.10477028304687E-16  -4.89181577283951E-01  -4.89181577283951E-01   0.00000000000000E+00   0.00000000000000E+00
     -2.98798509678290E-08   6.21618768297429E-17  -2.98798509056671E-08  -2.98495279937879E-16
      8.02587041975309E-01
      0.00000000000000E+00   0.00000000000000E+00   0.00000000000000E+00   0.00000000000000E+00   0.00000000000000E+00
      0.00000000000000E+00   0.00000000000000E+00   4.19937532124729E-16   0.00000000000000E+00   0.00000000000000E+00
      0.00000000000000E+00   0.00000000000000E+00   3.05472750595178E-08  -3.48455381879196E-16   3.05472747110624E-08
     -1.10468513579993E-16  -5.21681577283951E-01  -5.21681577283951E-01   0.00000000000000E+00   0.00000000000000E+00
     -3.05472742295258E-08  -4.80032395751468E-16  -3.05472747095582E-08  -3.10653265202194E-16
      8.52587041975309E-01
      0.00000000000000E+00   0.00000000000000E+00   0.00000000000000E+00   0.00000000000000E+00   0.00000000000000E+00
      0.00000000000000E+00   0.00000000000000E+00   4.32048012498008E-16   0.00000000000000E+00   0.00000000000000E+00
      0.00000000000000E+00   0.00000000000000E+00   3.12123206674286E-08   8.88213981753656E-17   3.12123207562500E-08
     -1.10460028077302E-16  -5.54181577283951E-01  -5.54181577283951E-01   0.00000000000000E+00   0.00000000000000E+00
     -3.12123191392555E-08  -1.61647446198828E-15  -3.12123207557300E-08  -3.22772378926266E-16
      9.02587041975309E-01
      0.00000000000000E+00   0.00000000000000E+00   0.00000000000000E+00   0.00000000000000E+00   0.00000000000000E+00
      0.00000000000000E+00   0.00000000000000E+00   4.44118824577338E-16   0.00000000000000E+00   0.00000000000000E+00
      0.00000000000000E+00   0.00000000000000E+00   3.18751530575575E-08   1.45583707974784E-16   3.18751532031412E-08
     -1.10451573063321E-16  -5.86681577283951E-01  -5.86681577283951E-01   0.00000000000000E+00   0.00000000000000E+00
     -3.18751518982001E-08  -1.30473338987793E-15  -3.18751532029334E-08  -3.34851794273086E-16
      9.52587041975309E-01
      0.00000000000000E+00   0.00000000000000E+00   0.00000000000000E+00   0.00000000000000E+00   0.00000000000000E+00
      0.00000000000000E+00   0.00000000000000E+00   4.56149155503397E-16   0.00000000000000E+00   0.00000000000000E+00
      0.00000000000000E+00   0.00000000000000E+00   3.25358983521279E-08   2.61021686161587E-17   3.25358983782301E-08
     -1.10443149896241E-16  -6.19181577283951E-01  -6.19181577283951E-01   0.00000000000000E+00   0.00000000000000E+00
     -3.25358972319527E-08  -1.14593216310243E-15  -3.25358983778849E-08  -3.46890696629969E-16
      1.00000000000000E+00
      0.00000000000000E+00   0.00000000000000E+00   0.00000000000000E+00   0.00000000000000E+00   0.00000000000000E+00
      0.00000000000000E+00   0.00000000000000E+00   4.67518911742468E-16   0.00000000000000E+00   0.00000000000000E+00
      0.00000000000000E+00   0.00000000000000E+00   3.31606134736895E-08  -1.79331247143957E-16   3.31606132943582E-08
     -1.10435193266490E-16  -6.50000000000000E-01  -6.50000000000000E-01   0.00000000000000E+00   0.00000000000000E+00
     -3.31606126826127E-08  -6.11900884518971E-16  -3.31606132945136E-08  -3.58268549647584E-16
}
