DF-ISE text

Info {
  version   = 1.0
  type      = xyplot
  datasets  = [
    "time"
    "gate OuterVoltage" "gate InnerVoltage" "gate QuasiFermiPotential" "gate DisplacementCurrent" "gate eCurrent"
    "gate hCurrent" "gate TotalCurrent" "gate Charge" "source OuterVoltage" "source InnerVoltage"
    "source QuasiFermiPotential" "source DisplacementCurrent" "source eCurrent" "source hCurrent" "source TotalCurrent"
    "source Charge" "drain OuterVoltage" "drain InnerVoltage" "drain QuasiFermiPotential" "drain DisplacementCurrent"
    "drain eCurrent" "drain hCurrent" "drain TotalCurrent" "drain Charge" ]
  functions = [
    Time
    OuterVoltage InnerVoltage QuasiFermiPotential DisplacementCurrent eCurrent
    hCurrent TotalCurrent Charge OuterVoltage InnerVoltage
    QuasiFermiPotential DisplacementCurrent eCurrent hCurrent TotalCurrent
    Charge OuterVoltage InnerVoltage QuasiFermiPotential DisplacementCurrent
    eCurrent hCurrent TotalCurrent Charge ]
}

Data {
      0.00000000000000E+00
      0.00000000000000E+00   0.00000000000000E+00   0.00000000000000E+00   0.00000000000000E+00   0.00000000000000E+00
      0.00000000000000E+00   0.00000000000000E+00  -2.21652345404271E-16   0.00000000000000E+00   0.00000000000000E+00
      0.00000000000000E+00   0.00000000000000E+00   3.04754206924023E-20  -1.66663001954465E-31   3.04754206922356E-20
      1.11222881166646E-16   0.00000000000000E+00   0.00000000000000E+00   0.00000000000000E+00   0.00000000000000E+00
     -1.37739676011684E-21  -1.46518531231794E-31  -1.37739676026335E-21   1.11642192348622E-16
      0.00000000000000E+00
      0.00000000000000E+00   0.00000000000000E+00   0.00000000000000E+00   0.00000000000000E+00   0.00000000000000E+00
      0.00000000000000E+00   0.00000000000000E+00  -2.21652286732394E-16   0.00000000000000E+00   0.00000000000000E+00
      0.00000000000000E+00   0.00000000000000E+00   8.52441500564532E-17   2.00336677235054E-30   8.52441500564552E-17
      1.11222853601987E-16   0.00000000000000E+00   0.00000000000000E+00   0.00000000000000E+00   0.00000000000000E+00
      5.70072573614169E-17  -6.46096075019687E-29   5.70072573613523E-17   1.11642161240855E-16
      0.00000000000000E+00
      0.00000000000000E+00   0.00000000000000E+00   0.00000000000000E+00   0.00000000000000E+00   0.00000000000000E+00
      0.00000000000000E+00   0.00000000000000E+00  -2.21652286732325E-16   0.00000000000000E+00   0.00000000000000E+00
      0.00000000000000E+00   0.00000000000000E+00  -3.48105814726340E-20  -1.63819408153689E-33  -3.48105814726357E-20
      1.11222853601954E-16   0.00000000000000E+00   0.00000000000000E+00   0.00000000000000E+00   0.00000000000000E+00
     -3.60972210457797E-20  -2.30584237355436E-33  -3.60972210457820E-20   1.11642161240812E-16
      1.00000000000000E-03
      0.00000000000000E+00   0.00000000000000E+00   0.00000000000000E+00   0.00000000000000E+00   0.00000000000000E+00
      0.00000000000000E+00   0.00000000000000E+00  -2.21918358515558E-16   0.00000000000000E+00   0.00000000000000E+00
      0.00000000000000E+00   0.00000000000000E+00  -1.55529000303345E-09  -3.81646412377005E-27  -1.55529000303345E-09
      1.11222613101646E-16   7.00000000000000E-04   7.00000000000000E-04   0.00000000000000E+00   0.00000000000000E+00
      1.55541759030658E-09  -1.20165249396741E-26   1.55541759030658E-09   1.11908154614304E-16
      2.86666666666667E-03
      0.00000000000000E+00   0.00000000000000E+00   0.00000000000000E+00   0.00000000000000E+00   0.00000000000000E+00
      0.00000000000000E+00   0.00000000000000E+00  -2.22414873565493E-16   0.00000000000000E+00   0.00000000000000E+00
      0.00000000000000E+00   0.00000000000000E+00  -4.14970538085340E-09  -6.35401649661212E-27  -4.14970538085340E-09
      1.11222163947058E-16   2.00666666666667E-03   2.00666666666667E-03   0.00000000000000E+00   0.00000000000000E+00
      4.14971064611291E-09  -1.44344956751360E-26   4.14971064611291E-09   1.12404538764833E-16
      6.60000000000000E-03
      0.00000000000000E+00   0.00000000000000E+00   0.00000000000000E+00   0.00000000000000E+00   0.00000000000000E+00
      0.00000000000000E+00   0.00000000000000E+00  -2.23407313234485E-16   0.00000000000000E+00   0.00000000000000E+00
      0.00000000000000E+00   0.00000000000000E+00  -8.32480585650549E-09  -1.29847886798776E-26  -8.32480585650549E-09
      1.11221265140678E-16   4.62000000000000E-03   4.62000000000000E-03   0.00000000000000E+00   0.00000000000000E+00
      8.32487412653729E-09  -3.13787166950017E-26   8.32487412653729E-09   1.13396774728236E-16
      1.40666666666667E-02
      0.00000000000000E+00   0.00000000000000E+00   0.00000000000000E+00   0.00000000000000E+00   0.00000000000000E+00
      0.00000000000000E+00   0.00000000000000E+00  -2.25389866274724E-16   0.00000000000000E+00   0.00000000000000E+00
      0.00000000000000E+00   0.00000000000000E+00  -1.37525791391270E-08  -4.48093225164375E-26  -1.37525791391270E-08
      1.11219467598846E-16   9.84666666666667E-03   9.84666666666667E-03   0.00000000000000E+00   0.00000000000000E+00
      1.37525791020397E-08   4.06881825468875E-26   1.37525791020397E-08   1.15379135431890E-16
      2.80044444444444E-02
      0.00000000000000E+00   0.00000000000000E+00   0.00000000000000E+00   0.00000000000000E+00   0.00000000000000E+00
      0.00000000000000E+00   0.00000000000000E+00  -2.29082567518157E-16   0.00000000000000E+00   0.00000000000000E+00
      0.00000000000000E+00   0.00000000000000E+00  -1.81883487915416E-08   2.44481497128255E-26  -1.81883487915416E-08
      1.11216120420103E-16   1.96031111111111E-02   1.96031111111111E-02   0.00000000000000E+00   0.00000000000000E+00
      1.81883465210706E-08   4.12049867127184E-26   1.81883465210706E-08   1.19072139847205E-16
      5.40216296296296E-02
      0.00000000000000E+00   0.00000000000000E+00   0.00000000000000E+00   0.00000000000000E+00   0.00000000000000E+00
      0.00000000000000E+00   0.00000000000000E+00  -2.35948943093324E-16   0.00000000000000E+00   0.00000000000000E+00
      0.00000000000000E+00   0.00000000000000E+00  -1.99774835674660E-08  -1.90863323263932E-27  -1.99774835674660E-08
      1.11209918608547E-16   3.78151407407407E-02   3.78151407407407E-02   0.00000000000000E+00   0.00000000000000E+00
      1.99774835674124E-08   4.97165357246749E-29   1.99774835674124E-08   1.25940817984000E-16
      9.56491259259259E-02
      0.00000000000000E+00   0.00000000000000E+00   0.00000000000000E+00   0.00000000000000E+00   0.00000000000000E+00
      0.00000000000000E+00   0.00000000000000E+00  -2.46868697649839E-16   0.00000000000000E+00   0.00000000000000E+00
      0.00000000000000E+00   0.00000000000000E+00  -2.07661293532419E-08   2.67239673417149E-26  -2.07661293532419E-08
      1.11200123870715E-16   6.69543881481481E-02   6.69543881481481E-02   0.00000000000000E+00   0.00000000000000E+00
      2.07661293676877E-08   2.04107655907284E-26   2.07661293676877E-08   1.36867054728981E-16
      1.45649125925926E-01
      0.00000000000000E+00   0.00000000000000E+00   0.00000000000000E+00   0.00000000000000E+00   0.00000000000000E+00
      0.00000000000000E+00   0.00000000000000E+00  -2.59887378378983E-16   0.00000000000000E+00   0.00000000000000E+00
      0.00000000000000E+00   0.00000000000000E+00  -2.16428596985431E-08  -6.33560769433184E-27  -2.16428596985431E-08
      1.11188542105504E-16   1.01954388148148E-01   1.01954388148148E-01   0.00000000000000E+00   0.00000000000000E+00
      2.16428597788261E-08  -2.74744177040030E-27   2.16428597788261E-08   1.49895640232558E-16
      1.95649125925926E-01
      0.00000000000000E+00   0.00000000000000E+00   0.00000000000000E+00   0.00000000000000E+00   0.00000000000000E+00
      0.00000000000000E+00   0.00000000000000E+00  -2.72810743791679E-16   0.00000000000000E+00   0.00000000000000E+00
      0.00000000000000E+00   0.00000000000000E+00  -2.24973630921017E-08  -1.70291787812043E-26  -2.24973630921017E-08
      1.11177134996483E-16   1.36954388148148E-01   1.36954388148148E-01   0.00000000000000E+00   0.00000000000000E+00
      2.24973630921498E-08   2.95832596433929E-28   2.24973630921498E-08   1.62829811607609E-16
      2.45649125925926E-01
      0.00000000000000E+00   0.00000000000000E+00   0.00000000000000E+00   0.00000000000000E+00   0.00000000000000E+00
      0.00000000000000E+00   0.00000000000000E+00  -2.85647940131299E-16   0.00000000000000E+00   0.00000000000000E+00
      0.00000000000000E+00   0.00000000000000E+00  -2.33335235783617E-08  -1.09070472577743E-26  -2.33335235783617E-08
      1.11165882950917E-16   1.71954388148148E-01   1.71954388148148E-01   0.00000000000000E+00   0.00000000000000E+00
      2.33335235782977E-08  -1.59354106073238E-28   2.33335235782977E-08   1.75678102232762E-16
      2.95649125925926E-01
      0.00000000000000E+00   0.00000000000000E+00   0.00000000000000E+00   0.00000000000000E+00   0.00000000000000E+00
      0.00000000000000E+00   0.00000000000000E+00  -2.98406374576058E-16   0.00000000000000E+00   0.00000000000000E+00
      0.00000000000000E+00   0.00000000000000E+00  -2.41543270304397E-08  -2.62554493134684E-25  -2.41543270304397E-08
      1.11154770601041E-16   2.06954388148148E-01   2.06954388148148E-01   0.00000000000000E+00   0.00000000000000E+00
      2.41543270300783E-08  -5.20688149539663E-27   2.41543270300783E-08   1.88447674332313E-16
      3.45649125925926E-01
      0.00000000000000E+00   0.00000000000000E+00   0.00000000000000E+00   0.00000000000000E+00   0.00000000000000E+00
      0.00000000000000E+00   0.00000000000000E+00  -3.11092187299142E-16   0.00000000000000E+00   0.00000000000000E+00
      0.00000000000000E+00   0.00000000000000E+00  -2.49621349587502E-08   1.99134929646609E-29  -2.49621349587502E-08
      1.11143785445387E-16   2.41954388148148E-01   2.41954388148148E-01   0.00000000000000E+00   0.00000000000000E+00
      2.49621349587583E-08   1.08622140344121E-29   2.49621349587583E-08   2.01144571348353E-16
      3.95649125925926E-01
      0.00000000000000E+00   0.00000000000000E+00   0.00000000000000E+00   0.00000000000000E+00   0.00000000000000E+00
      0.00000000000000E+00   0.00000000000000E+00  -3.23710552591992E-16   0.00000000000000E+00   0.00000000000000E+00
      0.00000000000000E+00   0.00000000000000E+00  -2.57588539137950E-08   1.44038996894274E-26  -2.57588539137950E-08
      1.11132917082380E-16   2.76954388148148E-01   2.76954388148148E-01   0.00000000000000E+00   0.00000000000000E+00
      2.57588539047341E-08  -1.32399537547655E-27   2.57588539047341E-08   2.13773930864604E-16
      4.45649125925926E-01
      0.00000000000000E+00   0.00000000000000E+00   0.00000000000000E+00   0.00000000000000E+00   0.00000000000000E+00
      0.00000000000000E+00   0.00000000000000E+00  -3.36265886113553E-16   0.00000000000000E+00   0.00000000000000E+00
      0.00000000000000E+00   0.00000000000000E+00  -2.65460484223217E-08  -6.32451044473839E-26  -2.65460484223217E-08
      1.11122156716755E-16   3.11954388148148E-01   3.11954388148148E-01   0.00000000000000E+00   0.00000000000000E+00
      2.65460416807458E-08  -4.46324358273929E-25   2.65460416807458E-08   2.26340146756949E-16
      4.95649125925926E-01
      0.00000000000000E+00   0.00000000000000E+00   0.00000000000000E+00   0.00000000000000E+00   0.00000000000000E+00
      0.00000000000000E+00   0.00000000000000E+00  -3.48761995633943E-16   0.00000000000000E+00   0.00000000000000E+00
      0.00000000000000E+00   0.00000000000000E+00  -2.73250203379310E-08   8.28909974103770E-25  -2.73250203379310E-08
      1.11111496813165E-16   3.46954388148148E-01   3.46954388148148E-01   0.00000000000000E+00   0.00000000000000E+00
      2.73249939477607E-08   4.14949652383858E-24   2.73249939477607E-08   2.38847028754706E-16
      5.45649125925926E-01
      0.00000000000000E+00   0.00000000000000E+00   0.00000000000000E+00   0.00000000000000E+00   0.00000000000000E+00
      0.00000000000000E+00   0.00000000000000E+00  -3.61202192238326E-16   0.00000000000000E+00   0.00000000000000E+00
      0.00000000000000E+00   0.00000000000000E+00  -2.80968649573752E-08  -2.42145031326114E-24  -2.80968649573752E-08
      1.11100930850783E-16   3.81954388148148E-01   3.81954388148148E-01   0.00000000000000E+00   0.00000000000000E+00
      2.80961461434209E-08  -5.74655749796052E-23   2.80961461434208E-08   2.51297907825241E-16
      5.95649125925926E-01
      0.00000000000000E+00   0.00000000000000E+00   0.00000000000000E+00   0.00000000000000E+00   0.00000000000000E+00
      0.00000000000000E+00   0.00000000000000E+00  -3.73589379415658E-16   0.00000000000000E+00   0.00000000000000E+00
      0.00000000000000E+00   0.00000000000000E+00  -2.88625141003949E-08  -2.21004646317013E-25  -2.88625141003949E-08
      1.11090453123167E-16   4.16954388148148E-01   4.16954388148148E-01   0.00000000000000E+00   0.00000000000000E+00
      2.88625099396763E-08   2.56809566718269E-23   2.88625099396764E-08   2.63695692184734E-16
      6.45649125925926E-01
      0.00000000000000E+00   0.00000000000000E+00   0.00000000000000E+00   0.00000000000000E+00   0.00000000000000E+00
      0.00000000000000E+00   0.00000000000000E+00  -3.85926115269727E-16   0.00000000000000E+00   0.00000000000000E+00
      0.00000000000000E+00   0.00000000000000E+00  -2.96227669100337E-08  -2.76876998120050E-24  -2.96227669100337E-08
      1.11080058613089E-16   4.51954388148148E-01   4.51954388148148E-01   0.00000000000000E+00   0.00000000000000E+00
      2.96227668741374E-08   3.06831076846110E-21   2.96227668741405E-08   2.76042942419929E-16
      6.95649125925926E-01
      0.00000000000000E+00   0.00000000000000E+00   0.00000000000000E+00   0.00000000000000E+00   0.00000000000000E+00
      0.00000000000000E+00   0.00000000000000E+00  -3.98214669383890E-16   0.00000000000000E+00   0.00000000000000E+00
      0.00000000000000E+00   0.00000000000000E+00  -3.03783143214800E-08   8.58171227843735E-26  -3.03783143214800E-08
      1.11069742865781E-16   4.86954388148148E-01   4.86954388148148E-01   0.00000000000000E+00   0.00000000000000E+00
      3.03783093150047E-08   1.07889772516182E-20   3.03783093150155E-08   2.88341930999118E-16
      7.45649125925926E-01
      0.00000000000000E+00   0.00000000000000E+00   0.00000000000000E+00   0.00000000000000E+00   0.00000000000000E+00
      0.00000000000000E+00   0.00000000000000E+00  -4.10457063969197E-16   0.00000000000000E+00   0.00000000000000E+00
      0.00000000000000E+00   0.00000000000000E+00  -3.11297587125306E-08  -1.49053659629163E-24  -3.11297587125306E-08
      1.11059501899422E-16   5.21954388148148E-01   5.21954388148148E-01   0.00000000000000E+00   0.00000000000000E+00
      3.11297586516861E-08  -2.87871513951262E-22   3.11297586516858E-08   3.00594682759454E-16
      7.95649125925926E-01
      0.00000000000000E+00   0.00000000000000E+00   0.00000000000000E+00   0.00000000000000E+00   0.00000000000000E+00
      0.00000000000000E+00   0.00000000000000E+00  -4.22655105827548E-16   0.00000000000000E+00   0.00000000000000E+00
      0.00000000000000E+00   0.00000000000000E+00  -3.18776273323296E-08  -5.10052275821652E-25  -3.18776273323296E-08
      1.11049332136283E-16   5.56954388148148E-01   5.56954388148148E-01   0.00000000000000E+00   0.00000000000000E+00
      3.18776273322104E-08   1.40722916531477E-21   3.18776273322118E-08   3.12803009323119E-16
      8.45649125925926E-01
      0.00000000000000E+00   0.00000000000000E+00   0.00000000000000E+00   0.00000000000000E+00   0.00000000000000E+00
      0.00000000000000E+00   0.00000000000000E+00  -4.34810415524411E-16   0.00000000000000E+00   0.00000000000000E+00
      0.00000000000000E+00   0.00000000000000E+00  -3.26223850766433E-08  -6.81661844485942E-23  -3.26223850766433E-08
      1.11039230349692E-16   5.91954388148148E-01   5.91954388148148E-01   0.00000000000000E+00   0.00000000000000E+00
      3.26223850746630E-08   7.57366643511700E-20   3.26223850747388E-08   3.24968535099028E-16
      8.95649125925926E-01
      0.00000000000000E+00   0.00000000000000E+00   0.00000000000000E+00   0.00000000000000E+00   0.00000000000000E+00
      0.00000000000000E+00   0.00000000000000E+00  -4.46924449892761E-16   0.00000000000000E+00   0.00000000000000E+00
      0.00000000000000E+00   0.00000000000000E+00  -3.33644421384208E-08  -7.38038527164051E-25  -3.33644421384208E-08
      1.11029193660499E-16   6.26954388148148E-01   6.26954388148148E-01   0.00000000000000E+00   0.00000000000000E+00
      3.33644421383955E-08   2.97870792336478E-22   3.33644421383957E-08   3.37092720396973E-16
      9.45649125925926E-01
      0.00000000000000E+00   0.00000000000000E+00   0.00000000000000E+00   0.00000000000000E+00   0.00000000000000E+00
      0.00000000000000E+00   0.00000000000000E+00  -4.58998521410271E-16   0.00000000000000E+00   0.00000000000000E+00
      0.00000000000000E+00   0.00000000000000E+00  -3.41041627148310E-08  -2.50197664649615E-23  -3.41041627148311E-08
      1.11019219468912E-16   6.61954388148148E-01   6.61954388148148E-01   0.00000000000000E+00   0.00000000000000E+00
      3.41041627126969E-08   8.18545481778205E-21   3.41041627127051E-08   3.49176881114506E-16
      9.95649125925926E-01
      0.00000000000000E+00   0.00000000000000E+00   0.00000000000000E+00   0.00000000000000E+00   0.00000000000000E+00
      0.00000000000000E+00   0.00000000000000E+00  -4.71033815386408E-16   0.00000000000000E+00   0.00000000000000E+00
      0.00000000000000E+00   0.00000000000000E+00  -3.48418754023897E-08   4.37937163895117E-24  -3.48418754023897E-08
      1.11009305307280E-16   6.96954388148148E-01   6.96954388148148E-01   0.00000000000000E+00   0.00000000000000E+00
      3.48418707520781E-08   2.25795600881734E-19   3.48418707523039E-08   3.61222203990040E-16
      1.00000000000000E+00
      0.00000000000000E+00   0.00000000000000E+00   0.00000000000000E+00   0.00000000000000E+00   0.00000000000000E+00
      0.00000000000000E+00   0.00000000000000E+00  -4.72079298418418E-16   0.00000000000000E+00   0.00000000000000E+00
      0.00000000000000E+00   0.00000000000000E+00  -3.49059842532018E-08  -1.88110360460289E-26  -3.49059842532018E-08
      1.11008445365508E-16   7.00000000000000E-01   7.00000000000000E-01   0.00000000000000E+00   0.00000000000000E+00
      3.49059842530987E-08   1.19279874318556E-21   3.49059842530999E-08   3.62268556905562E-16
}
