DF-ISE text

Info {
  version   = 1.0
  type      = xyplot
  datasets  = [
    "time"
    "gate OuterVoltage" "gate InnerVoltage" "gate QuasiFermiPotential" "gate DisplacementCurrent" "gate eCurrent"
    "gate hCurrent" "gate TotalCurrent" "gate Charge" "source OuterVoltage" "source InnerVoltage"
    "source QuasiFermiPotential" "source DisplacementCurrent" "source eCurrent" "source hCurrent" "source TotalCurrent"
    "source Charge" "drain OuterVoltage" "drain InnerVoltage" "drain QuasiFermiPotential" "drain DisplacementCurrent"
    "drain eCurrent" "drain hCurrent" "drain TotalCurrent" "drain Charge" ]
  functions = [
    Time
    OuterVoltage InnerVoltage QuasiFermiPotential DisplacementCurrent eCurrent
    hCurrent TotalCurrent Charge OuterVoltage InnerVoltage
    QuasiFermiPotential DisplacementCurrent eCurrent hCurrent TotalCurrent
    Charge OuterVoltage InnerVoltage QuasiFermiPotential DisplacementCurrent
    eCurrent hCurrent TotalCurrent Charge ]
}

Data {
      0.00000000000000E+00
      0.00000000000000E+00   0.00000000000000E+00   0.00000000000000E+00   0.00000000000000E+00   0.00000000000000E+00
      0.00000000000000E+00   0.00000000000000E+00  -2.21652345404271E-16   0.00000000000000E+00   0.00000000000000E+00
      0.00000000000000E+00   0.00000000000000E+00  -4.39196698737943E-21  -1.66695362956804E-31  -4.39196698754612E-21
      1.11222881166646E-16   0.00000000000000E+00   0.00000000000000E+00   0.00000000000000E+00   0.00000000000000E+00
      1.11055442098771E-21  -1.46349830551319E-31   1.11055442084136E-21   1.11642192348622E-16
      0.00000000000000E+00
      0.00000000000000E+00   0.00000000000000E+00   0.00000000000000E+00   0.00000000000000E+00   0.00000000000000E+00
      0.00000000000000E+00   0.00000000000000E+00  -2.40622464494667E-16   0.00000000000000E+00   0.00000000000000E+00
      0.00000000000000E+00   0.00000000000000E+00  -3.95576813767920E-19  -1.43898779613695E-31  -3.95576813768064E-19
      1.21145866653423E-16   0.00000000000000E+00   0.00000000000000E+00   0.00000000000000E+00   0.00000000000000E+00
      3.49300387290570E-20  -1.17214194921649E-31   3.49300387289398E-20   1.20974266460657E-16
      0.00000000000000E+00
      0.00000000000000E+00   0.00000000000000E+00   0.00000000000000E+00   0.00000000000000E+00   0.00000000000000E+00
      0.00000000000000E+00   0.00000000000000E+00  -2.40622463906480E-16   0.00000000000000E+00   0.00000000000000E+00
      0.00000000000000E+00   0.00000000000000E+00   1.62339629236854E-17  -2.91788546365017E-30   1.62339629236825E-17
      1.21145866376216E-16   0.00000000000000E+00   0.00000000000000E+00   0.00000000000000E+00   0.00000000000000E+00
      4.21319059995738E-18  -6.49868749272390E-30   4.21319059995088E-18   1.20974266299135E-16
      1.00000000000000E-03
      0.00000000000000E+00   0.00000000000000E+00   0.00000000000000E+00   0.00000000000000E+00   0.00000000000000E+00
      0.00000000000000E+00   0.00000000000000E+00  -2.40847923561602E-16   0.00000000000000E+00   0.00000000000000E+00
      0.00000000000000E+00   0.00000000000000E+00  -9.28888735638762E-10  -2.91289293417904E-27  -9.28888735638762E-10
      1.21145655559466E-16   6.00000000000000E-04   6.00000000000000E-04   0.00000000000000E+00   0.00000000000000E+00
      9.35815661970602E-10   4.24705366677144E-27   9.35815661970602E-10   1.21199050555291E-16
      2.86666666666667E-03
      0.00000000000000E+00   0.00000000000000E+00   0.00000000000000E+00   0.00000000000000E+00   0.00000000000000E+00
      0.00000000000000E+00   0.00000000000000E+00  -2.41268684881526E-16   0.00000000000000E+00   0.00000000000000E+00
      0.00000000000000E+00   0.00000000000000E+00  -2.47476069110032E-09  -8.12959600406623E-27  -2.47476069110032E-09
      1.21145261908465E-16   1.72000000000000E-03   1.72000000000000E-03   0.00000000000000E+00   0.00000000000000E+00
      2.47477081330250E-09  -2.09287607793031E-26   2.47477081330250E-09   1.21618571475523E-16
      6.60000000000000E-03
      0.00000000000000E+00   0.00000000000000E+00   0.00000000000000E+00   0.00000000000000E+00   0.00000000000000E+00
      0.00000000000000E+00   0.00000000000000E+00  -2.42109831797119E-16   0.00000000000000E+00   0.00000000000000E+00
      0.00000000000000E+00   0.00000000000000E+00  -4.95387854045718E-09  -1.74897927834285E-26  -4.95387854045718E-09
      1.21144474359298E-16   3.96000000000000E-03   3.96000000000000E-03   0.00000000000000E+00   0.00000000000000E+00
      4.95403961355313E-09  -4.69637506872127E-26   4.95403961355313E-09   1.22457315322233E-16
      1.40666666666667E-02
      0.00000000000000E+00   0.00000000000000E+00   0.00000000000000E+00   0.00000000000000E+00   0.00000000000000E+00
      0.00000000000000E+00   0.00000000000000E+00  -2.43790639288091E-16   0.00000000000000E+00   0.00000000000000E+00
      0.00000000000000E+00   0.00000000000000E+00  -8.16358518481894E-09  -5.46791377509029E-29  -8.16358518481894E-09
      1.21142899656162E-16   8.44000000000000E-03   8.44000000000000E-03   0.00000000000000E+00   0.00000000000000E+00
      8.16358518466665E-09   1.02040232877164E-28   8.16358518466665E-09   1.24133614408144E-16
      2.70088888888889E-02
      0.00000000000000E+00   0.00000000000000E+00   0.00000000000000E+00   0.00000000000000E+00   0.00000000000000E+00
      0.00000000000000E+00   0.00000000000000E+00  -2.46699438098523E-16   0.00000000000000E+00   0.00000000000000E+00
      0.00000000000000E+00   0.00000000000000E+00  -1.06570007411737E-08   5.14156700549576E-26  -1.06570007411737E-08
      1.21140176037480E-16   1.62053333333333E-02   1.62053333333333E-02   0.00000000000000E+00   0.00000000000000E+00
      1.06570054225032E-08   4.45758911735130E-26   1.06570054225032E-08   1.27035469053452E-16
      5.11677037037037E-02
      0.00000000000000E+00   0.00000000000000E+00   0.00000000000000E+00   0.00000000000000E+00   0.00000000000000E+00
      0.00000000000000E+00   0.00000000000000E+00  -2.52114140077990E-16   0.00000000000000E+00   0.00000000000000E+00
      0.00000000000000E+00   0.00000000000000E+00  -1.15008984701873E-08  -3.16375224497594E-28  -1.15008984701873E-08
      1.21135122461000E-16   3.07006222222222E-02   3.07006222222222E-02   0.00000000000000E+00   0.00000000000000E+00
      1.15008984710184E-08   5.06342123432294E-28   1.15008984710184E-08   1.32439778827980E-16
      8.98218074074074E-02
      0.00000000000000E+00   0.00000000000000E+00   0.00000000000000E+00   0.00000000000000E+00   0.00000000000000E+00
      0.00000000000000E+00   0.00000000000000E+00  -2.60739182024930E-16   0.00000000000000E+00   0.00000000000000E+00
      0.00000000000000E+00   0.00000000000000E+00  -1.12554267697117E-08  -1.00715038803325E-26  -1.12554267697117E-08
      1.21127125823397E-16   5.38930844444444E-02   5.38930844444444E-02   0.00000000000000E+00   0.00000000000000E+00
      1.12554267703485E-08  -1.74920650766161E-27   1.12554267703485E-08   1.41053724052548E-16
      1.14821807407407E-01
      0.00000000000000E+00   0.00000000000000E+00   0.00000000000000E+00   0.00000000000000E+00   0.00000000000000E+00
      0.00000000000000E+00   0.00000000000000E+00  -2.66293841962237E-16   0.00000000000000E+00   0.00000000000000E+00
      0.00000000000000E+00   0.00000000000000E+00  -1.13168799123894E-08  -6.05705145658214E-27  -1.13168799123894E-08
      1.21122008447746E-16   6.88930844444444E-02   6.88930844444444E-02   0.00000000000000E+00   0.00000000000000E+00
      1.13168799100210E-08  -4.64824103619597E-27   1.13168799100210E-08   1.46603981973705E-16
      1.34821807407407E-01
      0.00000000000000E+00   0.00000000000000E+00   0.00000000000000E+00   0.00000000000000E+00   0.00000000000000E+00
      0.00000000000000E+00   0.00000000000000E+00  -2.70724889998328E-16   0.00000000000000E+00   0.00000000000000E+00
      0.00000000000000E+00   0.00000000000000E+00  -1.14791549943280E-08  -3.13015135293922E-26  -1.14791549943280E-08
      1.21117942928880E-16   8.08930844444444E-02   8.08930844444444E-02   0.00000000000000E+00   0.00000000000000E+00
      1.14791549170775E-08  -1.13314181745286E-26   1.14791549170775E-08   1.51032729358829E-16
      1.66821807407407E-01
      0.00000000000000E+00   0.00000000000000E+00   0.00000000000000E+00   0.00000000000000E+00   0.00000000000000E+00
      0.00000000000000E+00   0.00000000000000E+00  -2.77792183709498E-16   0.00000000000000E+00   0.00000000000000E+00
      0.00000000000000E+00   0.00000000000000E+00  -1.18279405272180E-08  -9.11423607379077E-26  -1.18279405272180E-08
      1.21111487172521E-16   1.00093084444444E-01   1.00093084444444E-01   0.00000000000000E+00   0.00000000000000E+00
      1.18279408473049E-08  -4.09110071801452E-26   1.18279408473049E-08   1.58098155230341E-16
      1.90288474074074E-01
      0.00000000000000E+00   0.00000000000000E+00   0.00000000000000E+00   0.00000000000000E+00   0.00000000000000E+00
      0.00000000000000E+00   0.00000000000000E+00  -2.82958086563663E-16   0.00000000000000E+00   0.00000000000000E+00
      0.00000000000000E+00   0.00000000000000E+00  -1.21029516279823E-08  -1.37175190139404E-29  -1.21029516279823E-08
      1.21106789167139E-16   1.14173084444444E-01   1.14173084444444E-01   0.00000000000000E+00   0.00000000000000E+00
      1.21029516278943E-08  -7.11136134358732E-31   1.21029516278943E-08   1.63263837708312E-16
      2.21577362962963E-01
      0.00000000000000E+00   0.00000000000000E+00   0.00000000000000E+00   0.00000000000000E+00   0.00000000000000E+00
      0.00000000000000E+00   0.00000000000000E+00  -2.89824865230855E-16   0.00000000000000E+00   0.00000000000000E+00
      0.00000000000000E+00   0.00000000000000E+00  -1.24621178982406E-08  -4.27712808376131E-30  -1.24621178982406E-08
      1.21100570013490E-16   1.32946417777778E-01   1.32946417777778E-01   0.00000000000000E+00   0.00000000000000E+00
      1.24621178987648E-08   4.53738424594988E-31   1.24621178987648E-08   1.70131514676949E-16
      2.59124029629630E-01
      0.00000000000000E+00   0.00000000000000E+00   0.00000000000000E+00   0.00000000000000E+00   0.00000000000000E+00
      0.00000000000000E+00   0.00000000000000E+00  -2.98034605529517E-16   0.00000000000000E+00   0.00000000000000E+00
      0.00000000000000E+00   0.00000000000000E+00  -1.28640573573276E-08  -9.80290806504165E-27  -1.28640573573276E-08
      1.21093170802770E-16   1.55474417777778E-01   1.55474417777778E-01   0.00000000000000E+00   0.00000000000000E+00
      1.28640573565315E-08  -1.25305761660395E-27   1.28640573565315E-08   1.78343737519048E-16
      3.04180029629630E-01
      0.00000000000000E+00   0.00000000000000E+00   0.00000000000000E+00   0.00000000000000E+00   0.00000000000000E+00
      0.00000000000000E+00   0.00000000000000E+00  -3.07844781976244E-16   0.00000000000000E+00   0.00000000000000E+00
      0.00000000000000E+00   0.00000000000000E+00  -1.33038319898915E-08  -3.32188158538338E-25  -1.33038319898915E-08
      1.21084377593994E-16   1.82508017777778E-01   1.82508017777778E-01   0.00000000000000E+00   0.00000000000000E+00
      1.33038323650463E-08  -3.46970237402523E-26   1.33038323650463E-08   1.88158388813833E-16
      3.52239762962963E-01
      0.00000000000000E+00   0.00000000000000E+00   0.00000000000000E+00   0.00000000000000E+00   0.00000000000000E+00
      0.00000000000000E+00   0.00000000000000E+00  -3.18261796638214E-16   0.00000000000000E+00   0.00000000000000E+00
      0.00000000000000E+00   0.00000000000000E+00  -1.37384949331759E-08  -8.31164129071624E-27  -1.37384949331759E-08
      1.21075094275891E-16   2.11343857777778E-01   2.11343857777778E-01   0.00000000000000E+00   0.00000000000000E+00
      1.37384949341797E-08  -8.78080900588524E-28   1.37384949341797E-08   1.98581451823607E-16
      4.00299496296296E-01
      0.00000000000000E+00   0.00000000000000E+00   0.00000000000000E+00   0.00000000000000E+00   0.00000000000000E+00
      0.00000000000000E+00   0.00000000000000E+00  -3.28632800520564E-16   0.00000000000000E+00   0.00000000000000E+00
      0.00000000000000E+00   0.00000000000000E+00  -1.41566296706419E-08   1.69240216860817E-24  -1.41566296706419E-08
      1.21065903312509E-16   2.40179697777778E-01   2.40179697777778E-01   0.00000000000000E+00   0.00000000000000E+00
      1.41566301308371E-08   7.80895946426602E-26   1.41566301308371E-08   2.08959410745226E-16
      4.50299496296296E-01
      0.00000000000000E+00   0.00000000000000E+00   0.00000000000000E+00   0.00000000000000E+00   0.00000000000000E+00
      0.00000000000000E+00   0.00000000000000E+00  -3.39376258569427E-16   0.00000000000000E+00   0.00000000000000E+00
      0.00000000000000E+00   0.00000000000000E+00  -1.45900852432092E-08   1.68511598196135E-25  -1.45900852432092E-08
      1.21056432801138E-16   2.70179697777778E-01   2.70179697777778E-01   0.00000000000000E+00   0.00000000000000E+00
      1.45900854050709E-08   1.18075577807014E-26   1.45900854050709E-08   2.19710755877316E-16
      5.00299496296296E-01
      0.00000000000000E+00   0.00000000000000E+00   0.00000000000000E+00   0.00000000000000E+00   0.00000000000000E+00
      0.00000000000000E+00   0.00000000000000E+00  -3.50074920214100E-16   0.00000000000000E+00   0.00000000000000E+00
      0.00000000000000E+00   0.00000000000000E+00  -1.50273242140439E-08  -1.44500111046360E-25  -1.50273242140439E-08
      1.21047049735485E-16   3.00179697777778E-01   3.00179697777778E-01   0.00000000000000E+00   0.00000000000000E+00
      1.50273242283687E-08  -1.36142590860788E-25   1.50273242283687E-08   2.30417748465357E-16
      5.50299496296296E-01
      0.00000000000000E+00   0.00000000000000E+00   0.00000000000000E+00   0.00000000000000E+00   0.00000000000000E+00
      0.00000000000000E+00   0.00000000000000E+00  -3.60730905937917E-16   0.00000000000000E+00   0.00000000000000E+00
      0.00000000000000E+00   0.00000000000000E+00  -1.54730117933692E-08  -2.77716078296161E-27  -1.54730117933692E-08
      1.21037748908454E-16   3.30179697777778E-01   3.30179697777778E-01   0.00000000000000E+00   0.00000000000000E+00
      1.54730118117161E-08  -6.99587115912841E-27   1.54730118117161E-08   2.41082359126597E-16
      6.00299496296297E-01
      0.00000000000000E+00   0.00000000000000E+00   0.00000000000000E+00   0.00000000000000E+00   0.00000000000000E+00
      0.00000000000000E+00   0.00000000000000E+00  -3.71346121064658E-16   0.00000000000000E+00   0.00000000000000E+00
      0.00000000000000E+00   0.00000000000000E+00  -1.59215615430845E-08   4.03195024003099E-26  -1.59215615430845E-08
      1.21028525660616E-16   3.60179697777778E-01   3.60179697777778E-01   0.00000000000000E+00   0.00000000000000E+00
      1.59215613621758E-08  -2.75938246258619E-26   1.59215613621758E-08   2.51706380947905E-16
      6.50299496296297E-01
      0.00000000000000E+00   0.00000000000000E+00   0.00000000000000E+00   0.00000000000000E+00   0.00000000000000E+00
      0.00000000000000E+00   0.00000000000000E+00  -3.81922261152474E-16   0.00000000000000E+00   0.00000000000000E+00
      0.00000000000000E+00   0.00000000000000E+00  -1.63745697234065E-08  -3.62929053256377E-24  -1.63745697234065E-08
      1.21019375906435E-16   3.90179697777778E-01   3.90179697777778E-01   0.00000000000000E+00   0.00000000000000E+00
      1.63745383385143E-08  -1.60635336239908E-23   1.63745383385143E-08   2.62291442625106E-16
      7.00299496296297E-01
      0.00000000000000E+00   0.00000000000000E+00   0.00000000000000E+00   0.00000000000000E+00   0.00000000000000E+00
      0.00000000000000E+00   0.00000000000000E+00  -3.92460870111903E-16   0.00000000000000E+00   0.00000000000000E+00
      0.00000000000000E+00   0.00000000000000E+00  -1.68257119774161E-08   1.77870012687515E-24  -1.68257119774161E-08
      1.21010295924814E-16   4.20179697777778E-01   4.20179697777778E-01   0.00000000000000E+00   0.00000000000000E+00
      1.68259489437434E-08  -1.94763084408332E-26   1.68259489437434E-08   2.72839031758527E-16
      7.50299496296297E-01
      0.00000000000000E+00   0.00000000000000E+00   0.00000000000000E+00   0.00000000000000E+00   0.00000000000000E+00
      0.00000000000000E+00   0.00000000000000E+00  -4.02963329619719E-16   0.00000000000000E+00   0.00000000000000E+00
      0.00000000000000E+00   0.00000000000000E+00  -1.72763627497338E-08   1.96228378166256E-24  -1.72763627497338E-08
      1.21001282424632E-16   4.50179697777778E-01   4.50179697777778E-01   0.00000000000000E+00   0.00000000000000E+00
      1.72764859300552E-08  -5.59274063772070E-25   1.72764859300552E-08   2.83350502607791E-16
      8.00299496296297E-01
      0.00000000000000E+00   0.00000000000000E+00   0.00000000000000E+00   0.00000000000000E+00   0.00000000000000E+00
      0.00000000000000E+00   0.00000000000000E+00  -4.13430919832216E-16   0.00000000000000E+00   0.00000000000000E+00
      0.00000000000000E+00   0.00000000000000E+00  -1.77238771508309E-08   1.31105494735728E-23  -1.77238771508309E-08
      1.20992332340241E-16   4.80179697777778E-01   4.80179697777778E-01   0.00000000000000E+00   0.00000000000000E+00
      1.77240365392546E-08  -1.33784852399517E-23   1.77240365392546E-08   2.93827101300343E-16
      8.50299496296297E-01
      0.00000000000000E+00   0.00000000000000E+00   0.00000000000000E+00   0.00000000000000E+00   0.00000000000000E+00
      0.00000000000000E+00   0.00000000000000E+00  -4.23864775691654E-16   0.00000000000000E+00   0.00000000000000E+00
      0.00000000000000E+00   0.00000000000000E+00  -1.81692759123814E-08   1.44099957354737E-23  -1.81692759123814E-08
      1.20983442957736E-16   5.10179697777778E-01   5.10179697777778E-01   0.00000000000000E+00   0.00000000000000E+00
      1.81702591603882E-08  -2.79545804330709E-23   1.81702591603882E-08   3.04269957712569E-16
      9.00299496296297E-01
      0.00000000000000E+00   0.00000000000000E+00   0.00000000000000E+00   0.00000000000000E+00   0.00000000000000E+00
      0.00000000000000E+00   0.00000000000000E+00  -4.34265971915759E-16   0.00000000000000E+00   0.00000000000000E+00
      0.00000000000000E+00   0.00000000000000E+00  -1.86129955102989E-08   2.86741981711114E-23  -1.86129955102988E-08
      1.20974611667189E-16   5.40179697777778E-01   5.40179697777778E-01   0.00000000000000E+00   0.00000000000000E+00
      1.86125413951771E-08   2.09380900129478E-24   1.86125413951771E-08   3.14680124586781E-16
      9.50299496296297E-01
      0.00000000000000E+00   0.00000000000000E+00   0.00000000000000E+00   0.00000000000000E+00   0.00000000000000E+00
      0.00000000000000E+00   0.00000000000000E+00  -4.44635473312676E-16   0.00000000000000E+00   0.00000000000000E+00
      0.00000000000000E+00   0.00000000000000E+00  -1.90559792377356E-08   1.51056523165810E-22  -1.90559792377355E-08
      1.20965836058104E-16   5.70179697777778E-01   5.70179697777778E-01   0.00000000000000E+00   0.00000000000000E+00
      1.90568328415570E-08  -7.09523499300904E-24   1.90568328415569E-08   3.25058559889464E-16
      1.00000000000000E+00
      0.00000000000000E+00   0.00000000000000E+00   0.00000000000000E+00   0.00000000000000E+00   0.00000000000000E+00
      0.00000000000000E+00   0.00000000000000E+00  -4.54912319323729E-16   0.00000000000000E+00   0.00000000000000E+00
      0.00000000000000E+00   0.00000000000000E+00  -1.94951261089620E-08  -3.56917646803360E-24  -1.94951261089620E-08
      1.20957165923960E-16   6.00000000000000E-01   6.00000000000000E-01   0.00000000000000E+00   0.00000000000000E+00
      1.94970442309676E-08  -1.39452529016915E-23   1.94970442309676E-08   3.35344249280134E-16
}
