DF-ISE text

Info {
  version   = 1.0
  type      = xyplot
  datasets  = [
    "time"
    "gate OuterVoltage" "gate InnerVoltage" "gate QuasiFermiPotential" "gate DisplacementCurrent" "gate eCurrent"
    "gate hCurrent" "gate TotalCurrent" "gate Charge" "source OuterVoltage" "source InnerVoltage"
    "source QuasiFermiPotential" "source DisplacementCurrent" "source eCurrent" "source hCurrent" "source TotalCurrent"
    "source Charge" "drain OuterVoltage" "drain InnerVoltage" "drain QuasiFermiPotential" "drain DisplacementCurrent"
    "drain eCurrent" "drain hCurrent" "drain TotalCurrent" "drain Charge" ]
  functions = [
    Time
    OuterVoltage InnerVoltage QuasiFermiPotential DisplacementCurrent eCurrent
    hCurrent TotalCurrent Charge OuterVoltage InnerVoltage
    QuasiFermiPotential DisplacementCurrent eCurrent hCurrent TotalCurrent
    Charge OuterVoltage InnerVoltage QuasiFermiPotential DisplacementCurrent
    eCurrent hCurrent TotalCurrent Charge ]
}

Data {
      0.00000000000000E+00
      0.00000000000000E+00   0.00000000000000E+00   0.00000000000000E+00   0.00000000000000E+00   0.00000000000000E+00
      0.00000000000000E+00   0.00000000000000E+00   2.16889578365311E-16   0.00000000000000E+00   0.00000000000000E+00
      0.00000000000000E+00   0.00000000000000E+00  -2.28595764111380E-18   1.55417699586657E-18  -7.31780645247228E-19
     -1.09088786021976E-16   0.00000000000000E+00   0.00000000000000E+00   0.00000000000000E+00   0.00000000000000E+00
     -4.32235556559767E-19   4.10875927980687E-19  -2.13596285790796E-20  -1.09019436852473E-16
      0.00000000000000E+00
      0.00000000000000E+00   0.00000000000000E+00   0.00000000000000E+00   0.00000000000000E+00   0.00000000000000E+00
      0.00000000000000E+00   0.00000000000000E+00   2.16889545676207E-16   0.00000000000000E+00   0.00000000000000E+00
      0.00000000000000E+00   0.00000000000000E+00  -5.31417517653077E-17   4.45289867524083E-17  -8.61276501289934E-18
     -1.09088769566082E-16   0.00000000000000E+00   0.00000000000000E+00   0.00000000000000E+00   0.00000000000000E+00
     -8.67754040086391E-17   8.59312485118710E-17  -8.44155496768083E-19  -1.09019420660221E-16
      0.00000000000000E+00
      0.00000000000000E+00   0.00000000000000E+00   0.00000000000000E+00   0.00000000000000E+00   0.00000000000000E+00
      0.00000000000000E+00   0.00000000000000E+00   2.16889545676176E-16   0.00000000000000E+00   0.00000000000000E+00
      0.00000000000000E+00   0.00000000000000E+00  -7.99713678011957E-18   7.98840317966733E-18  -8.73360045224356E-21
     -1.09088769566066E-16   0.00000000000000E+00   0.00000000000000E+00   0.00000000000000E+00   0.00000000000000E+00
      1.05845755417635E-17  -1.05866536859722E-17  -2.07814420865211E-21  -1.09019420660206E-16
      1.00000000000000E-03
      0.00000000000000E+00   0.00000000000000E+00   0.00000000000000E+00   0.00000000000000E+00   0.00000000000000E+00
      0.00000000000000E+00   0.00000000000000E+00   2.17166415698377E-16   0.00000000000000E+00   0.00000000000000E+00
      0.00000000000000E+00   0.00000000000000E+00   1.38110594641886E-09  -1.95873473882613E-17   1.38110592683152E-09
     -1.09088350540148E-16  -7.00000000000000E-04  -7.00000000000000E-04   0.00000000000000E+00   0.00000000000000E+00
     -1.38110653569586E-09   9.52410133149870E-14  -1.38101129468255E-09  -1.09296310318142E-16
      2.86666666666667E-03
      0.00000000000000E+00   0.00000000000000E+00   0.00000000000000E+00   0.00000000000000E+00   0.00000000000000E+00
      0.00000000000000E+00   0.00000000000000E+00   2.17683047663502E-16   0.00000000000000E+00   0.00000000000000E+00
      0.00000000000000E+00   0.00000000000000E+00   3.79306631716570E-09  -1.14758863139036E-15   3.79306516957707E-09
     -1.09087569125403E-16  -2.00666666666667E-03  -2.00666666666667E-03   0.00000000000000E+00   0.00000000000000E+00
     -3.79306694299828E-09   2.78525901736904E-16  -3.79306666447238E-09  -1.09812999574431E-16
      6.60000000000000E-03
      0.00000000000000E+00   0.00000000000000E+00   0.00000000000000E+00   0.00000000000000E+00   0.00000000000000E+00
      0.00000000000000E+00   0.00000000000000E+00   2.18715569977987E-16   0.00000000000000E+00   0.00000000000000E+00
      0.00000000000000E+00   0.00000000000000E+00   8.02804418280324E-09  -1.30243259809261E-14   8.02803115847726E-09
     -1.09086009284476E-16  -4.62000000000000E-03  -4.62000000000000E-03   0.00000000000000E+00   0.00000000000000E+00
     -8.02804765674621E-09  -4.02271443274745E-15  -8.02805167946065E-09  -1.10845713924412E-16
      1.40666666666667E-02
      0.00000000000000E+00   0.00000000000000E+00   0.00000000000000E+00   0.00000000000000E+00   0.00000000000000E+00
      0.00000000000000E+00   0.00000000000000E+00   2.20777716829901E-16   0.00000000000000E+00   0.00000000000000E+00
      0.00000000000000E+00   0.00000000000000E+00   1.45487952130737E-08  -9.62494238975818E-17   1.45487951168243E-08
     -1.09082901406029E-16  -9.84666666666667E-03  -9.84666666666667E-03   0.00000000000000E+00   0.00000000000000E+00
     -1.45487951969884E-08   8.57078985976035E-17  -1.45487951112805E-08  -1.12908530792219E-16
      2.80044444444444E-02
      0.00000000000000E+00   0.00000000000000E+00   0.00000000000000E+00   0.00000000000000E+00   0.00000000000000E+00
      0.00000000000000E+00   0.00000000000000E+00   2.24617174617622E-16   0.00000000000000E+00   0.00000000000000E+00
      0.00000000000000E+00   0.00000000000000E+00   2.18910732969158E-08  -1.61243976347776E-17   2.18910732807914E-08
     -1.09077140469305E-16  -1.96031111111111E-02  -1.96031111111111E-02   0.00000000000000E+00   0.00000000000000E+00
     -2.18910734409327E-08   7.91093929998085E-16  -2.18910726498387E-08  -1.16750112317174E-16
      5.40216296296296E-02
      0.00000000000000E+00   0.00000000000000E+00   0.00000000000000E+00   0.00000000000000E+00   0.00000000000000E+00
      0.00000000000000E+00   0.00000000000000E+00   2.31752512562362E-16   0.00000000000000E+00   0.00000000000000E+00
      0.00000000000000E+00   0.00000000000000E+00   2.71899066099814E-08   1.35868304207492E-14   2.71899201968118E-08
     -1.09066512816165E-16  -3.78151407407407E-02  -3.78151407407407E-02   0.00000000000000E+00   0.00000000000000E+00
     -2.71899320311233E-08   6.19994136449276E-14  -2.71898700317097E-08  -1.23891667260779E-16
      1.02587041975309E-01
      0.00000000000000E+00   0.00000000000000E+00   0.00000000000000E+00   0.00000000000000E+00   0.00000000000000E+00
      0.00000000000000E+00   0.00000000000000E+00   2.44977391850977E-16   0.00000000000000E+00   0.00000000000000E+00
      0.00000000000000E+00   0.00000000000000E+00   2.96519629897973E-08  -1.57579593678804E-17   2.96519629740393E-08
     -1.09047020177167E-16  -7.18109293827160E-02  -7.18109293827160E-02   0.00000000000000E+00   0.00000000000000E+00
     -2.96519630005154E-08   2.64627073776903E-17  -2.96519629740527E-08  -1.37132513064415E-16
      1.52587041975309E-01
      0.00000000000000E+00   0.00000000000000E+00   0.00000000000000E+00   0.00000000000000E+00   0.00000000000000E+00
      0.00000000000000E+00   0.00000000000000E+00   2.58489191856652E-16   0.00000000000000E+00   0.00000000000000E+00
      0.00000000000000E+00   0.00000000000000E+00   3.13363285728164E-08  -7.29361049651020E-14   3.13362556367114E-08
     -1.09027294923449E-16  -1.06810929382716E-01  -1.06810929382716E-01   0.00000000000000E+00   0.00000000000000E+00
     -3.13362132842625E-08  -4.12632644685131E-14  -3.13362545475270E-08  -1.50663113285213E-16
      2.02587041975309E-01
      0.00000000000000E+00   0.00000000000000E+00   0.00000000000000E+00   0.00000000000000E+00   0.00000000000000E+00
      0.00000000000000E+00   0.00000000000000E+00   2.71918413776700E-16   0.00000000000000E+00   0.00000000000000E+00
      0.00000000000000E+00   0.00000000000000E+00   3.30019470604601E-08  -5.57254573887489E-15   3.30019414879144E-08
     -1.09007820315776E-16  -1.41810929382716E-01  -1.41810929382716E-01   0.00000000000000E+00   0.00000000000000E+00
     -3.30019156544687E-08  -1.24124638717924E-14  -3.30019280669326E-08  -1.64111823292357E-16
      2.52587041975309E-01
      0.00000000000000E+00   0.00000000000000E+00   0.00000000000000E+00   0.00000000000000E+00   0.00000000000000E+00
      0.00000000000000E+00   0.00000000000000E+00   2.85281342607167E-16   0.00000000000000E+00   0.00000000000000E+00
      0.00000000000000E+00   0.00000000000000E+00   3.46591933812567E-08   1.36794768361787E-17   3.46591933949362E-08
     -1.08988529518136E-16  -1.76810929382716E-01  -1.76810929382716E-01   0.00000000000000E+00   0.00000000000000E+00
     -3.46591934024542E-08   7.51960138589050E-18  -3.46591933949346E-08  -1.77494383690417E-16
      3.02587041975309E-01
      0.00000000000000E+00   0.00000000000000E+00   0.00000000000000E+00   0.00000000000000E+00   0.00000000000000E+00
      0.00000000000000E+00   0.00000000000000E+00   2.98589110078562E-16   0.00000000000000E+00   0.00000000000000E+00
      0.00000000000000E+00   0.00000000000000E+00   3.63143918350232E-08  -3.88351901598514E-17   3.63143917961880E-08
     -1.08969375828991E-16  -2.11810929382716E-01  -2.11810929382716E-01   0.00000000000000E+00   0.00000000000000E+00
     -3.63143918561542E-08   5.99210211305644E-17  -3.63143917962332E-08  -1.90821746800022E-16
      3.52587041975309E-01
      0.00000000000000E+00   0.00000000000000E+00   0.00000000000000E+00   0.00000000000000E+00   0.00000000000000E+00
      0.00000000000000E+00   0.00000000000000E+00   3.11848930086092E-16   0.00000000000000E+00   0.00000000000000E+00
      0.00000000000000E+00   0.00000000000000E+00   3.79716154511671E-08   4.03047369330059E-18   3.79716154551976E-08
     -1.08950327850505E-16  -2.46810929382716E-01  -2.46810929382716E-01   0.00000000000000E+00   0.00000000000000E+00
     -3.79716154798193E-08   2.46055817261638E-17  -3.79716154552137E-08  -2.04101092495236E-16
      4.02587041975309E-01
      0.00000000000000E+00   0.00000000000000E+00   0.00000000000000E+00   0.00000000000000E+00   0.00000000000000E+00
      0.00000000000000E+00   0.00000000000000E+00   3.25065218260789E-16   0.00000000000000E+00   0.00000000000000E+00
      0.00000000000000E+00   0.00000000000000E+00   3.96342830832313E-08   2.94252907675780E-17   3.96342831126566E-08
     -1.08931365075353E-16  -2.81810929382716E-01  -2.81810929382716E-01   0.00000000000000E+00   0.00000000000000E+00
     -3.96342831417444E-08   2.91178044046934E-17  -3.96342831126266E-08  -2.17336827851779E-16
      4.52587041975309E-01
      0.00000000000000E+00   0.00000000000000E+00   0.00000000000000E+00   0.00000000000000E+00   0.00000000000000E+00
      0.00000000000000E+00   0.00000000000000E+00   3.38240456737603E-16   0.00000000000000E+00   0.00000000000000E+00
      0.00000000000000E+00   0.00000000000000E+00   4.13047789588009E-08   1.92898779649540E-17   4.13047789780907E-08
     -1.08912474651621E-16  -3.16810929382716E-01  -3.16810929382716E-01   0.00000000000000E+00   0.00000000000000E+00
     -4.13047790099990E-08   3.18910266854192E-17  -4.13047789781080E-08  -2.30531422925017E-16
      5.02587041975309E-01
      0.00000000000000E+00   0.00000000000000E+00   0.00000000000000E+00   0.00000000000000E+00   0.00000000000000E+00
      0.00000000000000E+00   0.00000000000000E+00   3.51375820861959E-16   0.00000000000000E+00   0.00000000000000E+00
      0.00000000000000E+00   0.00000000000000E+00   4.29846897939848E-08   2.96501258694814E-16   4.29846900904860E-08
     -1.08893649096431E-16  -3.51810929382716E-01  -3.51810929382716E-01   0.00000000000000E+00   0.00000000000000E+00
     -4.29846894012365E-08  -6.54472192529394E-16  -4.29846900557087E-08  -2.43686052424511E-16
      5.52587041975309E-01
      0.00000000000000E+00   0.00000000000000E+00   0.00000000000000E+00   0.00000000000000E+00   0.00000000000000E+00
      0.00000000000000E+00   0.00000000000000E+00   3.64471626672067E-16   0.00000000000000E+00   0.00000000000000E+00
      0.00000000000000E+00   0.00000000000000E+00   4.46751277336544E-08  -4.72379266741379E-17   4.46751276864165E-08
     -1.08874884610310E-16  -3.86810929382716E-01  -3.86810929382716E-01   0.00000000000000E+00   0.00000000000000E+00
     -4.46751276684804E-08  -1.80301783501691E-17  -4.46751276865106E-08  -2.56801051512951E-16
      6.02587041975309E-01
      0.00000000000000E+00   0.00000000000000E+00   0.00000000000000E+00   0.00000000000000E+00   0.00000000000000E+00
      0.00000000000000E+00   0.00000000000000E+00   3.77527652458453E-16   0.00000000000000E+00   0.00000000000000E+00
      0.00000000000000E+00   0.00000000000000E+00   4.63769247954781E-08  -3.06691353254157E-17   4.63769247648090E-08
     -1.08856179802037E-16  -4.21810929382716E-01  -4.21810929382716E-01   0.00000000000000E+00   0.00000000000000E+00
     -4.63769254021021E-08   6.38708521612267E-16  -4.63769247633936E-08  -2.69876212005274E-16
      6.52587041975309E-01
      0.00000000000000E+00   0.00000000000000E+00   0.00000000000000E+00   0.00000000000000E+00   0.00000000000000E+00
      0.00000000000000E+00   0.00000000000000E+00   3.90543350020194E-16   0.00000000000000E+00   0.00000000000000E+00
      0.00000000000000E+00   0.00000000000000E+00   4.80906920517481E-08   2.61922723997320E-16   4.80906923136709E-08
     -1.08837534867697E-16  -4.56810929382716E-01  -4.56810929382716E-01   0.00000000000000E+00   0.00000000000000E+00
     -4.80906925112942E-08   1.99297309343479E-16  -4.80906923119969E-08  -2.82910988536917E-16
      7.02587041975309E-01
      0.00000000000000E+00   0.00000000000000E+00   0.00000000000000E+00   0.00000000000000E+00   0.00000000000000E+00
      0.00000000000000E+00   0.00000000000000E+00   4.03517980669208E-16   0.00000000000000E+00   0.00000000000000E+00
      0.00000000000000E+00   0.00000000000000E+00   4.98168527885249E-08   2.62697654111344E-16   4.98168530512226E-08
     -1.08818951076769E-16  -4.91810929382716E-01  -4.91810929382716E-01   0.00000000000000E+00   0.00000000000000E+00
     -4.98168557564868E-08   2.70760007166430E-15  -4.98168530488867E-08  -2.95904641192016E-16
      7.52587041975309E-01
      0.00000000000000E+00   0.00000000000000E+00   0.00000000000000E+00   0.00000000000000E+00   0.00000000000000E+00
      0.00000000000000E+00   0.00000000000000E+00   4.16450704981333E-16   0.00000000000000E+00   0.00000000000000E+00
      0.00000000000000E+00   0.00000000000000E+00   5.15556776077850E-08  -5.10907490872280E-16   5.15556770968775E-08
     -1.08800430428128E-16  -5.26810929382716E-01  -5.26810929382716E-01   0.00000000000000E+00   0.00000000000000E+00
     -5.15556784974598E-08   1.40394818185315E-15  -5.15556770935116E-08  -3.08856328032858E-16
      8.02587041975309E-01
      0.00000000000000E+00   0.00000000000000E+00   0.00000000000000E+00   0.00000000000000E+00   0.00000000000000E+00
      0.00000000000000E+00   0.00000000000000E+00   4.29340640806648E-16   0.00000000000000E+00   0.00000000000000E+00
      0.00000000000000E+00   0.00000000000000E+00   5.33073113064552E-08   3.54963485771863E-17   5.33073113419515E-08
     -1.08781975422141E-16  -5.61810929382716E-01  -5.61810929382716E-01   0.00000000000000E+00   0.00000000000000E+00
     -5.33073108578879E-08  -4.82847934277100E-16  -5.33073113407358E-08  -3.21765163878026E-16
      8.52587041975309E-01
      0.00000000000000E+00   0.00000000000000E+00   0.00000000000000E+00   0.00000000000000E+00   0.00000000000000E+00
      0.00000000000000E+00   0.00000000000000E+00   4.42186899238808E-16   0.00000000000000E+00   0.00000000000000E+00
      0.00000000000000E+00   0.00000000000000E+00   5.50718014024460E-08  -6.04032411030605E-17   5.50718013420427E-08
     -1.08763588912818E-16  -5.96810929382716E-01  -5.96810929382716E-01   0.00000000000000E+00   0.00000000000000E+00
     -5.50718018508354E-08   5.08487349917429E-16  -5.50718013423481E-08  -3.34630256496432E-16
      9.02587041975309E-01
      0.00000000000000E+00   0.00000000000000E+00   0.00000000000000E+00   0.00000000000000E+00   0.00000000000000E+00
      0.00000000000000E+00   0.00000000000000E+00   4.54988605170477E-16   0.00000000000000E+00   0.00000000000000E+00
      0.00000000000000E+00   0.00000000000000E+00   5.68491077744465E-08  -8.50758846344339E-16   5.68491069236876E-08
     -1.08745274014609E-16  -6.31810929382716E-01  -6.31810929382716E-01   0.00000000000000E+00   0.00000000000000E+00
     -5.68491090511566E-08   2.12675725268497E-15  -5.68491069243994E-08  -3.47450727239218E-16
      9.52587041975309E-01
      0.00000000000000E+00   0.00000000000000E+00   0.00000000000000E+00   0.00000000000000E+00   0.00000000000000E+00
      0.00000000000000E+00   0.00000000000000E+00   4.67744906808680E-16   0.00000000000000E+00   0.00000000000000E+00
      0.00000000000000E+00   0.00000000000000E+00   5.86391130307562E-08  -1.85971954237770E-16   5.86391128447843E-08
     -1.08727034048574E-16  -6.66810929382716E-01  -6.66810929382716E-01   0.00000000000000E+00   0.00000000000000E+00
     -5.86391099598240E-08  -2.88618559457619E-15  -5.86391128460096E-08  -3.60225720600609E-16
      1.00000000000000E+00
      0.00000000000000E+00   0.00000000000000E+00   0.00000000000000E+00   0.00000000000000E+00   0.00000000000000E+00
      0.00000000000000E+00   0.00000000000000E+00   4.79798494327018E-16   0.00000000000000E+00   0.00000000000000E+00
      0.00000000000000E+00   0.00000000000000E+00   6.03480678933439E-08   7.71193935464884E-18   6.03480679010558E-08
     -1.08709810232013E-16  -7.00000000000000E-01  -7.00000000000000E-01   0.00000000000000E+00   0.00000000000000E+00
     -6.03480678264996E-08  -7.45695808390037E-17  -6.03480679010691E-08  -3.72296961755593E-16
}
