DF-ISE text

Info {
  version   = 1.0
  type      = xyplot
  datasets  = [
    "time"
    "gate OuterVoltage" "gate InnerVoltage" "gate QuasiFermiPotential" "gate DisplacementCurrent" "gate eCurrent"
    "gate hCurrent" "gate TotalCurrent" "gate Charge" "source OuterVoltage" "source InnerVoltage"
    "source QuasiFermiPotential" "source DisplacementCurrent" "source eCurrent" "source hCurrent" "source TotalCurrent"
    "source Charge" "drain OuterVoltage" "drain InnerVoltage" "drain QuasiFermiPotential" "drain DisplacementCurrent"
    "drain eCurrent" "drain hCurrent" "drain TotalCurrent" "drain Charge" ]
  functions = [
    Time
    OuterVoltage InnerVoltage QuasiFermiPotential DisplacementCurrent eCurrent
    hCurrent TotalCurrent Charge OuterVoltage InnerVoltage
    QuasiFermiPotential DisplacementCurrent eCurrent hCurrent TotalCurrent
    Charge OuterVoltage InnerVoltage QuasiFermiPotential DisplacementCurrent
    eCurrent hCurrent TotalCurrent Charge ]
}

Data {
      0.00000000000000E+00
      0.00000000000000E+00   0.00000000000000E+00   0.00000000000000E+00   0.00000000000000E+00   0.00000000000000E+00
      0.00000000000000E+00   0.00000000000000E+00   2.07607956930163E-16   0.00000000000000E+00   0.00000000000000E+00
      0.00000000000000E+00   0.00000000000000E+00   2.96573599458835E-19  -2.72490262734566E-18  -2.42832902788683E-18
     -1.04227169099012E-16   0.00000000000000E+00   0.00000000000000E+00   0.00000000000000E+00   0.00000000000000E+00
      6.85876821374160E-18  -7.56373393668591E-18  -7.04965722944307E-19  -1.04619835886418E-16
      0.00000000000000E+00
      0.00000000000000E+00   0.00000000000000E+00   0.00000000000000E+00   0.00000000000000E+00   0.00000000000000E+00
      0.00000000000000E+00   0.00000000000000E+00   2.32190668351168E-16   0.00000000000000E+00   0.00000000000000E+00
      0.00000000000000E+00   0.00000000000000E+00   2.41787844105319E-18  -3.58121431968814E-17  -3.33942647558282E-17
     -1.17216005716441E-16   0.00000000000000E+00   0.00000000000000E+00   0.00000000000000E+00   0.00000000000000E+00
      6.57347299837981E-18  -1.63125294172328E-17  -9.73905641885302E-18  -1.16795689122625E-16
      0.00000000000000E+00
      0.00000000000000E+00   0.00000000000000E+00   0.00000000000000E+00   0.00000000000000E+00   0.00000000000000E+00
      0.00000000000000E+00   0.00000000000000E+00   2.32190668229492E-16   0.00000000000000E+00   0.00000000000000E+00
      0.00000000000000E+00   0.00000000000000E+00  -2.52526552721036E-17   2.54902936789791E-17   2.37638406875457E-19
     -1.17216005683260E-16   0.00000000000000E+00   0.00000000000000E+00   0.00000000000000E+00   0.00000000000000E+00
     -4.45870330794092E-17   4.45919410913715E-17   4.90801196222168E-21  -1.16795689102997E-16
      1.00000000000000E-03
      0.00000000000000E+00   0.00000000000000E+00   0.00000000000000E+00   0.00000000000000E+00   0.00000000000000E+00
      0.00000000000000E+00   0.00000000000000E+00   2.32416944748185E-16   0.00000000000000E+00   0.00000000000000E+00
      0.00000000000000E+00   0.00000000000000E+00   6.00840370037012E-10   7.31318374180470E-16   6.00841101355386E-10
     -1.17215788582217E-16  -6.00000000000000E-04  -6.00000000000000E-04   0.00000000000000E+00   0.00000000000000E+00
     -6.00842560142553E-10  -2.08968708731571E-12  -6.02932247229868E-10  -1.17020620647823E-16
      2.86666666666667E-03
      0.00000000000000E+00   0.00000000000000E+00   0.00000000000000E+00   0.00000000000000E+00   0.00000000000000E+00
      0.00000000000000E+00   0.00000000000000E+00   2.32839223936095E-16   0.00000000000000E+00   0.00000000000000E+00
      0.00000000000000E+00   0.00000000000000E+00   1.64604777768761E-09   1.11930648193222E-14   1.64605897075243E-09
     -1.17215383492241E-16  -1.72000000000000E-03  -1.72000000000000E-03   0.00000000000000E+00   0.00000000000000E+00
     -1.64604838654336E-09  -7.54032931950320E-15  -1.64605592687268E-09  -1.17440420292625E-16
      6.60000000000000E-03
      0.00000000000000E+00   0.00000000000000E+00   0.00000000000000E+00   0.00000000000000E+00   0.00000000000000E+00
      0.00000000000000E+00   0.00000000000000E+00   2.33683379851900E-16   0.00000000000000E+00   0.00000000000000E+00
      0.00000000000000E+00   0.00000000000000E+00   3.46749912899992E-09   3.51354114789287E-16   3.46749948035404E-09
     -1.17214574002667E-16  -3.96000000000000E-03  -3.96000000000000E-03   0.00000000000000E+00   0.00000000000000E+00
     -3.46750142054539E-09  -1.18028348425533E-13  -3.46761944889382E-09  -1.18279736300500E-16
      1.40666666666667E-02
      0.00000000000000E+00   0.00000000000000E+00   0.00000000000000E+00   0.00000000000000E+00   0.00000000000000E+00
      0.00000000000000E+00   0.00000000000000E+00   2.35370101184748E-16   0.00000000000000E+00   0.00000000000000E+00
      0.00000000000000E+00   0.00000000000000E+00   6.22948322886567E-09   1.12248209181608E-17   6.22948324009050E-09
     -1.17212958059689E-16  -8.44000000000000E-03  -8.44000000000000E-03   0.00000000000000E+00   0.00000000000000E+00
     -6.22948321798763E-09  -2.18556877951310E-17  -6.22948323984332E-09  -1.19957237412256E-16
      2.70088888888889E-02
      0.00000000000000E+00   0.00000000000000E+00   0.00000000000000E+00   0.00000000000000E+00   0.00000000000000E+00
      0.00000000000000E+00   0.00000000000000E+00   2.38288836660096E-16   0.00000000000000E+00   0.00000000000000E+00
      0.00000000000000E+00   0.00000000000000E+00   9.08066673292118E-09   2.58078692786533E-17   9.08066675872905E-09
     -1.17210167717139E-16  -1.62053333333333E-02  -1.62053333333333E-02   0.00000000000000E+00   0.00000000000000E+00
     -9.08066686310086E-09   1.06985217296036E-16  -9.08066675611564E-09  -1.22861348729366E-16
      5.11677037037037E-02
      0.00000000000000E+00   0.00000000000000E+00   0.00000000000000E+00   0.00000000000000E+00   0.00000000000000E+00
      0.00000000000000E+00   0.00000000000000E+00   2.43721101236313E-16   0.00000000000000E+00   0.00000000000000E+00
      0.00000000000000E+00   0.00000000000000E+00   1.09716068563095E-08   2.53351266967277E-14   1.09716321914362E-08
     -1.17204997578590E-16  -3.07006222222222E-02  -3.07006222222222E-02   0.00000000000000E+00   0.00000000000000E+00
     -1.09716219722319E-08  -8.89933334390732E-15  -1.09716308715653E-08  -1.28270393156913E-16
      9.62641580246914E-02
      0.00000000000000E+00   0.00000000000000E+00   0.00000000000000E+00   0.00000000000000E+00   0.00000000000000E+00
      0.00000000000000E+00   0.00000000000000E+00   2.53809036192317E-16   0.00000000000000E+00   0.00000000000000E+00
      0.00000000000000E+00   0.00000000000000E+00   1.09121440401268E-08   8.46208204435082E-18   1.09121440485888E-08
     -1.17195477475996E-16  -5.77584948148148E-02  -5.77584948148148E-02   0.00000000000000E+00   0.00000000000000E+00
     -1.09121440490723E-08   1.55670773620540E-18  -1.09121440475156E-08  -1.38326409775026E-16
      1.46264158024691E-01
      0.00000000000000E+00   0.00000000000000E+00   0.00000000000000E+00   0.00000000000000E+00   0.00000000000000E+00
      0.00000000000000E+00   0.00000000000000E+00   2.64920928382158E-16   0.00000000000000E+00   0.00000000000000E+00
      0.00000000000000E+00   0.00000000000000E+00   1.04940098300430E-08  -1.84537102334480E-15   1.04940079846720E-08
     -1.17185100351499E-16  -8.77584948148148E-02  -8.77584948148148E-02   0.00000000000000E+00   0.00000000000000E+00
     -1.04940078705167E-08  -7.84497254820039E-17  -1.04940079489665E-08  -1.49415693503539E-16
      1.96264158024691E-01
      0.00000000000000E+00   0.00000000000000E+00   0.00000000000000E+00   0.00000000000000E+00   0.00000000000000E+00
      0.00000000000000E+00   0.00000000000000E+00   2.75963009669712E-16   0.00000000000000E+00   0.00000000000000E+00
      0.00000000000000E+00   0.00000000000000E+00   1.05534042255752E-08   3.85975708339002E-17   1.05534042641728E-08
     -1.17174886282371E-16  -1.17758494814815E-01  -1.17758494814815E-01   0.00000000000000E+00   0.00000000000000E+00
     -1.05534042865354E-08   2.18346491847685E-17  -1.05534042647008E-08  -1.60444492240687E-16
      2.46264158024691E-01
      0.00000000000000E+00   0.00000000000000E+00   0.00000000000000E+00   0.00000000000000E+00   0.00000000000000E+00
      0.00000000000000E+00   0.00000000000000E+00   2.86941023007954E-16   0.00000000000000E+00   0.00000000000000E+00
      0.00000000000000E+00   0.00000000000000E+00   1.09040039416600E-08   8.42306001518055E-15   1.09040123647200E-08
     -1.17164816695551E-16  -1.47758494814815E-01  -1.47758494814815E-01   0.00000000000000E+00   0.00000000000000E+00
     -1.09040123328839E-08  -2.22790882044884E-16  -1.09040125556748E-08  -1.71415709376300E-16
      2.96264158024691E-01
      0.00000000000000E+00   0.00000000000000E+00   0.00000000000000E+00   0.00000000000000E+00   0.00000000000000E+00
      0.00000000000000E+00   0.00000000000000E+00   2.97859699733951E-16   0.00000000000000E+00   0.00000000000000E+00
      0.00000000000000E+00   0.00000000000000E+00   1.13918879185341E-08  -1.25540636737149E-14   1.13918753644705E-08
     -1.17154877439094E-16  -1.77758494814815E-01  -1.77758494814815E-01   0.00000000000000E+00   0.00000000000000E+00
     -1.13918780766892E-08   1.70981016450869E-15  -1.13918763668790E-08  -1.82332156746932E-16
      3.46264158024691E-01
      0.00000000000000E+00   0.00000000000000E+00   0.00000000000000E+00   0.00000000000000E+00   0.00000000000000E+00
      0.00000000000000E+00   0.00000000000000E+00   3.08723025929148E-16   0.00000000000000E+00   0.00000000000000E+00
      0.00000000000000E+00   0.00000000000000E+00   1.19366989549359E-08   6.48590832878366E-16   1.19366996035267E-08
     -1.17145057143742E-16  -2.07758494814815E-01  -2.07758494814815E-01   0.00000000000000E+00   0.00000000000000E+00
     -1.19366998211146E-08   5.71383851260054E-17  -1.19366997639762E-08  -1.93196496328792E-16
      3.96264158024691E-01
      0.00000000000000E+00   0.00000000000000E+00   0.00000000000000E+00   0.00000000000000E+00   0.00000000000000E+00
      0.00000000000000E+00   0.00000000000000E+00   3.19534415173781E-16   0.00000000000000E+00   0.00000000000000E+00
      0.00000000000000E+00   0.00000000000000E+00   1.24971707348899E-08   5.95386326498735E-16   1.24971713302762E-08
     -1.17135346372566E-16  -2.37758494814815E-01  -2.37758494814815E-01   0.00000000000000E+00   0.00000000000000E+00
     -1.24971714830182E-08   9.86333405412645E-17  -1.24971713843848E-08  -2.04011214848524E-16
      4.46264158024691E-01
      0.00000000000000E+00   0.00000000000000E+00   0.00000000000000E+00   0.00000000000000E+00   0.00000000000000E+00
      0.00000000000000E+00   0.00000000000000E+00   3.30296827710034E-16   0.00000000000000E+00   0.00000000000000E+00
      0.00000000000000E+00   0.00000000000000E+00   1.30475792208440E-08  -9.80591833078574E-15   1.30475694149256E-08
     -1.17125737150959E-16  -2.67758494814815E-01  -2.67758494814815E-01   0.00000000000000E+00   0.00000000000000E+00
     -1.30475682180364E-08  -8.94836346725280E-16  -1.30475691128727E-08  -2.14778616869492E-16
      4.96264158024691E-01
      0.00000000000000E+00   0.00000000000000E+00   0.00000000000000E+00   0.00000000000000E+00   0.00000000000000E+00
      0.00000000000000E+00   0.00000000000000E+00   3.41012856992152E-16   0.00000000000000E+00   0.00000000000000E+00
      0.00000000000000E+00   0.00000000000000E+00   1.35730892074479E-08   1.22620421125161E-16   1.35730893300684E-08
     -1.17116222621558E-16  -2.97758494814815E-01  -2.97758494814815E-01   0.00000000000000E+00   0.00000000000000E+00
     -1.35730893945765E-08   6.35980769280726E-17  -1.35730893309784E-08  -2.25500828049968E-16
      5.46264158024691E-01
      0.00000000000000E+00   0.00000000000000E+00   0.00000000000000E+00   0.00000000000000E+00   0.00000000000000E+00
      0.00000000000000E+00   0.00000000000000E+00   3.51684793372488E-16   0.00000000000000E+00   0.00000000000000E+00
      0.00000000000000E+00   0.00000000000000E+00   1.40669246404876E-08  -7.81609600184156E-16   1.40669238588780E-08
     -1.17106796847933E-16  -3.27758494814815E-01  -3.27758494814815E-01   0.00000000000000E+00   0.00000000000000E+00
     -1.40669236904622E-08   6.80289749268589E-15  -1.40669168875647E-08  -2.36179803776302E-16
      5.96264158024691E-01
      0.00000000000000E+00   0.00000000000000E+00   0.00000000000000E+00   0.00000000000000E+00   0.00000000000000E+00
      0.00000000000000E+00   0.00000000000000E+00   3.62314677561280E-16   0.00000000000000E+00   0.00000000000000E+00
      0.00000000000000E+00   0.00000000000000E+00   1.45350107393860E-08   1.10972253298892E-14   1.45350218366113E-08
     -1.17097454628174E-16  -3.57758494814815E-01  -3.57758494814815E-01   0.00000000000000E+00   0.00000000000000E+00
     -1.45350209313842E-08  -6.00338162050357E-14  -1.45350809652004E-08  -2.46817340992143E-16
      6.46264158024691E-01
      0.00000000000000E+00   0.00000000000000E+00   0.00000000000000E+00   0.00000000000000E+00   0.00000000000000E+00
      0.00000000000000E+00   0.00000000000000E+00   3.72904334851634E-16   0.00000000000000E+00   0.00000000000000E+00
      0.00000000000000E+00   0.00000000000000E+00   1.49757989939336E-08  -2.48927915904767E-15   1.49757965046545E-08
     -1.17088191318477E-16  -3.87758494814815E-01  -3.87758494814815E-01   0.00000000000000E+00   0.00000000000000E+00
     -1.49757953376627E-08  -4.22845276467059E-14  -1.49758376221904E-08  -2.57415089633226E-16
      6.96264158024691E-01
      0.00000000000000E+00   0.00000000000000E+00   0.00000000000000E+00   0.00000000000000E+00   0.00000000000000E+00
      0.00000000000000E+00   0.00000000000000E+00   3.83455407840050E-16   0.00000000000000E+00   0.00000000000000E+00
      0.00000000000000E+00   0.00000000000000E+00   1.53982115201833E-08   3.63397257622287E-14   1.53982478599091E-08
     -1.17079002821907E-16  -4.17758494814815E-01  -4.17758494814815E-01   0.00000000000000E+00   0.00000000000000E+00
     -1.53982469178329E-08  -6.01156875010307E-14  -1.53983070335205E-08  -2.67974564942581E-16
      7.46264158024691E-01
      0.00000000000000E+00   0.00000000000000E+00   0.00000000000000E+00   0.00000000000000E+00   0.00000000000000E+00
      0.00000000000000E+00   0.00000000000000E+00   3.93969386850269E-16   0.00000000000000E+00   0.00000000000000E+00
      0.00000000000000E+00   0.00000000000000E+00   1.58091105301247E-08   6.11348706844155E-15   1.58091166436118E-08
     -1.17069885419306E-16  -4.47758494814815E-01  -4.47758494814815E-01   0.00000000000000E+00   0.00000000000000E+00
     -1.58091167518179E-08  -8.65977291777046E-14  -1.58092033495471E-08  -2.78497161190983E-16
      7.96264158024692E-01
      0.00000000000000E+00   0.00000000000000E+00   0.00000000000000E+00   0.00000000000000E+00   0.00000000000000E+00
      0.00000000000000E+00   0.00000000000000E+00   4.04447618456204E-16   0.00000000000000E+00   0.00000000000000E+00
      0.00000000000000E+00   0.00000000000000E+00   1.62133161730986E-08   1.27172245150831E-13   1.62134433453438E-08
     -1.17060835778063E-16  -4.77758494814815E-01  -4.77758494814815E-01   0.00000000000000E+00   0.00000000000000E+00
     -1.62134448235949E-08  -1.11887200974250E-13  -1.62135567107959E-08  -2.88984158668873E-16
      8.46264158024692E-01
      0.00000000000000E+00   0.00000000000000E+00   0.00000000000000E+00   0.00000000000000E+00   0.00000000000000E+00
      0.00000000000000E+00   0.00000000000000E+00   4.14891336549904E-16   0.00000000000000E+00   0.00000000000000E+00
      0.00000000000000E+00   0.00000000000000E+00   1.66140346576303E-08   1.00979711455386E-15   1.66140356674274E-08
     -1.17051850846506E-16  -5.07758494814815E-01  -5.07758494814815E-01   0.00000000000000E+00   0.00000000000000E+00
     -1.66140364281117E-08  -8.94199445674017E-14  -1.66141258480563E-08  -2.99436738856306E-16
      8.96264158024692E-01
      0.00000000000000E+00   0.00000000000000E+00   0.00000000000000E+00   0.00000000000000E+00   0.00000000000000E+00
      0.00000000000000E+00   0.00000000000000E+00   4.25301668408348E-16   0.00000000000000E+00   0.00000000000000E+00
      0.00000000000000E+00   0.00000000000000E+00   1.70203552013043E-08   3.07923909559782E-14   1.70203859936953E-08
     -1.17042927840884E-16  -5.37758494814815E-01  -5.37758494814815E-01   0.00000000000000E+00   0.00000000000000E+00
     -1.70203875875316E-08  -1.14277458176729E-13  -1.70205018649898E-08  -3.09855990823127E-16
      9.46264158024692E-01
      0.00000000000000E+00   0.00000000000000E+00   0.00000000000000E+00   0.00000000000000E+00   0.00000000000000E+00
      0.00000000000000E+00   0.00000000000000E+00   4.35679637572541E-16   0.00000000000000E+00   0.00000000000000E+00
      0.00000000000000E+00   0.00000000000000E+00   1.74277276681647E-08  -1.92743763290876E-16   1.74277274754209E-08
     -1.17034064231420E-16  -5.67758494814815E-01  -5.67758494814815E-01   0.00000000000000E+00   0.00000000000000E+00
     -1.74277277112445E-08   1.30430924104909E-14  -1.74277146681521E-08  -3.20242915298035E-16
      9.96264158024692E-01
      0.00000000000000E+00   0.00000000000000E+00   0.00000000000000E+00   0.00000000000000E+00   0.00000000000000E+00
      0.00000000000000E+00   0.00000000000000E+00   4.46026206056737E-16   0.00000000000000E+00   0.00000000000000E+00
      0.00000000000000E+00   0.00000000000000E+00   1.78426796921272E-08   2.85622359750840E-16   1.78426799777496E-08
     -1.17025257602567E-16  -5.97758494814815E-01  -5.97758494814815E-01   0.00000000000000E+00   0.00000000000000E+00
     -1.78426786841249E-08   2.04256479098624E-13  -1.78424744276458E-08  -3.30598446481147E-16
      1.00000000000000E+00
      0.00000000000000E+00   0.00000000000000E+00   0.00000000000000E+00   0.00000000000000E+00   0.00000000000000E+00
      0.00000000000000E+00   0.00000000000000E+00   4.46798033161293E-16   0.00000000000000E+00   0.00000000000000E+00
      0.00000000000000E+00   0.00000000000000E+00   1.78739414278636E-08   2.48744716776749E-15   1.78739439153108E-08
     -1.17024601823162E-16  -6.00000000000000E-01  -6.00000000000000E-01   0.00000000000000E+00   0.00000000000000E+00
     -1.78739451877159E-08   7.17106607629613E-14  -1.78738734770552E-08  -3.31370943112152E-16
}
