DF-ISE text

Info {
  version   = 1.0
  type      = xyplot
  datasets  = [
    "time"
    "gate OuterVoltage" "gate InnerVoltage" "gate QuasiFermiPotential" "gate DisplacementCurrent" "gate eCurrent"
    "gate hCurrent" "gate TotalCurrent" "gate Charge" "source OuterVoltage" "source InnerVoltage"
    "source QuasiFermiPotential" "source DisplacementCurrent" "source eCurrent" "source hCurrent" "source TotalCurrent"
    "source Charge" "drain OuterVoltage" "drain InnerVoltage" "drain QuasiFermiPotential" "drain DisplacementCurrent"
    "drain eCurrent" "drain hCurrent" "drain TotalCurrent" "drain Charge" ]
  functions = [
    Time
    OuterVoltage InnerVoltage QuasiFermiPotential DisplacementCurrent eCurrent
    hCurrent TotalCurrent Charge OuterVoltage InnerVoltage
    QuasiFermiPotential DisplacementCurrent eCurrent hCurrent TotalCurrent
    Charge OuterVoltage InnerVoltage QuasiFermiPotential DisplacementCurrent
    eCurrent hCurrent TotalCurrent Charge ]
}

Data {
      0.00000000000000E+00
      0.00000000000000E+00   0.00000000000000E+00   0.00000000000000E+00   0.00000000000000E+00   0.00000000000000E+00
      0.00000000000000E+00   0.00000000000000E+00   2.19966009358064E-16   0.00000000000000E+00   0.00000000000000E+00
      0.00000000000000E+00   0.00000000000000E+00   2.85692658136313E-18  -3.44248540956634E-18  -5.85558828203214E-19
     -1.10609806368168E-16   0.00000000000000E+00   0.00000000000000E+00   0.00000000000000E+00   0.00000000000000E+00
      4.32235532874189E-19  -4.48042653291695E-19  -1.58071204175057E-20  -1.10551577306656E-16
      0.00000000000000E+00
      0.00000000000000E+00   0.00000000000000E+00   0.00000000000000E+00   0.00000000000000E+00   0.00000000000000E+00
      0.00000000000000E+00   0.00000000000000E+00   2.19965965889889E-16   0.00000000000000E+00   0.00000000000000E+00
      0.00000000000000E+00   0.00000000000000E+00   4.00094638896173E-18  -2.31278788998457E-17  -1.91269325108840E-17
     -1.10609784511322E-16   0.00000000000000E+00   0.00000000000000E+00   0.00000000000000E+00   0.00000000000000E+00
     -2.97426629408024E-17   2.82167880662964E-17  -1.52587487450598E-18  -1.10551555750047E-16
      0.00000000000000E+00
      0.00000000000000E+00   0.00000000000000E+00   0.00000000000000E+00   0.00000000000000E+00   0.00000000000000E+00
      0.00000000000000E+00   0.00000000000000E+00   2.19965965889842E-16   0.00000000000000E+00   0.00000000000000E+00
      0.00000000000000E+00   0.00000000000000E+00   9.14234392905867E-18  -9.12508042440184E-18   1.72635046568311E-20
     -1.10609784511298E-16   0.00000000000000E+00   0.00000000000000E+00   0.00000000000000E+00   0.00000000000000E+00
      8.01682202145739E-18  -8.01577379209739E-18   1.04822936000608E-21  -1.10551555750024E-16
      1.00000000000000E-03
      0.00000000000000E+00   0.00000000000000E+00   0.00000000000000E+00   0.00000000000000E+00   0.00000000000000E+00
      0.00000000000000E+00   0.00000000000000E+00   2.20325941497034E-16   0.00000000000000E+00   0.00000000000000E+00
      0.00000000000000E+00   0.00000000000000E+00   1.27930508404093E-09  -1.24934864129550E-15   1.27930383469229E-09
     -1.10609519480325E-16  -9.00000000000000E-04  -9.00000000000000E-04   0.00000000000000E+00   0.00000000000000E+00
     -1.27930386535204E-09   2.30138849910795E-13  -1.27907372650213E-09  -1.10911415159616E-16
      2.86666666666667E-03
      0.00000000000000E+00   0.00000000000000E+00   0.00000000000000E+00   0.00000000000000E+00   0.00000000000000E+00
      0.00000000000000E+00   0.00000000000000E+00   2.20997575026268E-16   0.00000000000000E+00   0.00000000000000E+00
      0.00000000000000E+00   0.00000000000000E+00   3.46960150043004E-09  -4.39611082957416E-15   3.46959710431921E-09
     -1.10609025272182E-16  -2.58000000000000E-03  -2.58000000000000E-03   0.00000000000000E+00   0.00000000000000E+00
     -3.46959564044524E-09  -4.46287702838613E-15  -3.46960010332227E-09  -1.11582858313575E-16
      6.60000000000000E-03
      0.00000000000000E+00   0.00000000000000E+00   0.00000000000000E+00   0.00000000000000E+00   0.00000000000000E+00
      0.00000000000000E+00   0.00000000000000E+00   2.22339607671941E-16   0.00000000000000E+00   0.00000000000000E+00
      0.00000000000000E+00   0.00000000000000E+00   7.16845393262853E-09  -2.57843244136462E-14   7.16842814830411E-09
     -1.10608038912759E-16  -5.94000000000000E-03  -5.94000000000000E-03   0.00000000000000E+00   0.00000000000000E+00
     -7.16846308171574E-09  -4.51169671516073E-15  -7.16846759341245E-09  -1.12924608402588E-16
      1.40666666666667E-02
      0.00000000000000E+00   0.00000000000000E+00   0.00000000000000E+00   0.00000000000000E+00   0.00000000000000E+00
      0.00000000000000E+00   0.00000000000000E+00   2.25018886199664E-16   0.00000000000000E+00   0.00000000000000E+00
      0.00000000000000E+00   0.00000000000000E+00   1.24280117836828E-08   3.43249707993688E-16   1.24280121269325E-08
     -1.10606074541077E-16  -1.26600000000000E-02  -1.26600000000000E-02   0.00000000000000E+00   0.00000000000000E+00
     -1.24280133260371E-08   1.22565119493535E-15  -1.24280121003859E-08  -1.15603674515080E-16
      2.80044444444444E-02
      0.00000000000000E+00   0.00000000000000E+00   0.00000000000000E+00   0.00000000000000E+00   0.00000000000000E+00
      0.00000000000000E+00   0.00000000000000E+00   2.30004117333294E-16   0.00000000000000E+00   0.00000000000000E+00
      0.00000000000000E+00   0.00000000000000E+00   1.74753818654815E-08  -8.50718906124548E-16   1.74753810147626E-08
     -1.10602436916293E-16  -2.52040000000000E-02  -2.52040000000000E-02   0.00000000000000E+00   0.00000000000000E+00
     -1.74753829066299E-08   4.83698753305086E-15  -1.74753780696423E-08  -1.20589530051767E-16
      5.40216296296296E-02
      0.00000000000000E+00   0.00000000000000E+00   0.00000000000000E+00   0.00000000000000E+00   0.00000000000000E+00
      0.00000000000000E+00   0.00000000000000E+00   2.39259748050186E-16   0.00000000000000E+00   0.00000000000000E+00
      0.00000000000000E+00   0.00000000000000E+00   2.01609490497458E-08  -8.17451126331614E-18   2.01609490415713E-08
     -1.10595736829915E-16  -4.86194666666667E-02  -4.86194666666667E-02   0.00000000000000E+00   0.00000000000000E+00
     -2.01609491151394E-08   7.35784798689291E-17  -2.01609490415609E-08  -1.29848698714832E-16
      9.56491259259259E-02
      0.00000000000000E+00   0.00000000000000E+00   0.00000000000000E+00   0.00000000000000E+00   0.00000000000000E+00
      0.00000000000000E+00   0.00000000000000E+00   2.53956359271443E-16   0.00000000000000E+00   0.00000000000000E+00
      0.00000000000000E+00   0.00000000000000E+00   2.12066671890275E-08  -2.02628547066473E-14   2.12066469261728E-08
     -1.10585203677655E-16  -8.60842133333333E-02  -8.60842133333333E-02   0.00000000000000E+00   0.00000000000000E+00
     -2.12066323524345E-08  -1.44136901148691E-14  -2.12066467661246E-08  -1.44554034636154E-16
      1.45649125925926E-01
      0.00000000000000E+00   0.00000000000000E+00   0.00000000000000E+00   0.00000000000000E+00   0.00000000000000E+00
      0.00000000000000E+00   0.00000000000000E+00   2.71468084972411E-16   0.00000000000000E+00   0.00000000000000E+00
      0.00000000000000E+00   0.00000000000000E+00   2.22456746486626E-08   4.14949185841493E-18   2.22456746528121E-08
     -1.10572764527945E-16  -1.31084213333333E-01  -1.31084213333333E-01   0.00000000000000E+00   0.00000000000000E+00
     -2.22456746658845E-08   1.30643221217936E-17  -2.22456746528202E-08  -1.62077801661030E-16
      1.95649125925926E-01
      0.00000000000000E+00   0.00000000000000E+00   0.00000000000000E+00   0.00000000000000E+00   0.00000000000000E+00
      0.00000000000000E+00   0.00000000000000E+00   2.88864180341556E-16   0.00000000000000E+00   0.00000000000000E+00
      0.00000000000000E+00   0.00000000000000E+00   2.32533205751672E-08  -2.12043823541654E-17   2.32533205539628E-08
     -1.10560481767118E-16  -1.76084213333333E-01  -1.76084213333333E-01   0.00000000000000E+00   0.00000000000000E+00
     -2.32533205427289E-08  -1.12229852433677E-17  -2.32533205539519E-08  -1.79486292867012E-16
      2.45649125925926E-01
      0.00000000000000E+00   0.00000000000000E+00   0.00000000000000E+00   0.00000000000000E+00   0.00000000000000E+00
      0.00000000000000E+00   0.00000000000000E+00   3.06169435621634E-16   0.00000000000000E+00   0.00000000000000E+00
      0.00000000000000E+00   0.00000000000000E+00   2.42399120556080E-08   4.48551682291210E-18   2.42399120600935E-08
     -1.10548305338909E-16  -2.21084213333333E-01  -2.21084213333333E-01   0.00000000000000E+00   0.00000000000000E+00
     -2.42399120355120E-08  -2.45815859881208E-17  -2.42399120600935E-08  -1.96803947646376E-16
      2.95649125925926E-01
      0.00000000000000E+00   0.00000000000000E+00   0.00000000000000E+00   0.00000000000000E+00   0.00000000000000E+00
      0.00000000000000E+00   0.00000000000000E+00   3.23397508261612E-16   0.00000000000000E+00   0.00000000000000E+00
      0.00000000000000E+00   0.00000000000000E+00   2.52101308994507E-08  -1.46109834032422E-17   2.52101308848398E-08
     -1.10536206004410E-16  -2.66084213333333E-01  -2.66084213333333E-01   0.00000000000000E+00   0.00000000000000E+00
     -2.52101308597604E-08  -2.50839040005638E-17  -2.52101308848443E-08  -2.14044367724274E-16
      3.45649125925926E-01
      0.00000000000000E+00   0.00000000000000E+00   0.00000000000000E+00   0.00000000000000E+00   0.00000000000000E+00
      0.00000000000000E+00   0.00000000000000E+00   3.40555065283701E-16   0.00000000000000E+00   0.00000000000000E+00
      0.00000000000000E+00   0.00000000000000E+00   2.61680458873408E-08  -1.35928825429737E-17   2.61680458737479E-08
     -1.10524167723085E-16  -3.11084213333333E-01  -3.11084213333333E-01   0.00000000000000E+00   0.00000000000000E+00
     -2.61680458136568E-08  -6.01026492660546E-17  -2.61680458737594E-08  -2.31214199524475E-16
      3.95649125925926E-01
      0.00000000000000E+00   0.00000000000000E+00   0.00000000000000E+00   0.00000000000000E+00   0.00000000000000E+00
      0.00000000000000E+00   0.00000000000000E+00   3.57644606433939E-16   0.00000000000000E+00   0.00000000000000E+00
      0.00000000000000E+00   0.00000000000000E+00   2.71163956785438E-08  -1.82050856642321E-15   2.71163938580353E-08
     -1.10512182587852E-16  -3.56084213333333E-01  -3.56084213333333E-01   0.00000000000000E+00   0.00000000000000E+00
     -2.71163893567026E-08  -3.91294408060187E-15  -2.71163932696467E-08  -2.48315933554512E-16
      4.45649125925926E-01
      0.00000000000000E+00   0.00000000000000E+00   0.00000000000000E+00   0.00000000000000E+00   0.00000000000000E+00
      0.00000000000000E+00   0.00000000000000E+00   3.74666247969911E-16   0.00000000000000E+00   0.00000000000000E+00
      0.00000000000000E+00   0.00000000000000E+00   2.80568740313487E-08   1.25078720786005E-14   2.80568865392208E-08
     -1.10500247595557E-16  -4.01084213333333E-01  -4.01084213333333E-01   0.00000000000000E+00   0.00000000000000E+00
     -2.80568913426723E-08   7.75746756978513E-15  -2.80568835852047E-08  -2.65349707475142E-16
      4.95649125925926E-01
      0.00000000000000E+00   0.00000000000000E+00   0.00000000000000E+00   0.00000000000000E+00   0.00000000000000E+00
      0.00000000000000E+00   0.00000000000000E+00   3.91618823131961E-16   0.00000000000000E+00   0.00000000000000E+00
      0.00000000000000E+00   0.00000000000000E+00   2.89907674119626E-08   1.77179340505555E-16   2.89907675891420E-08
     -1.10488362582606E-16  -4.46084213333333E-01  -4.46084213333333E-01   0.00000000000000E+00   0.00000000000000E+00
     -2.89907665153118E-08  -1.07271014378670E-15  -2.89907675880219E-08  -2.82314366761319E-16
      5.45649125925926E-01
      0.00000000000000E+00   0.00000000000000E+00   0.00000000000000E+00   0.00000000000000E+00   0.00000000000000E+00
      0.00000000000000E+00   0.00000000000000E+00   4.08500517902910E-16   0.00000000000000E+00   0.00000000000000E+00
      0.00000000000000E+00   0.00000000000000E+00   2.99189941102091E-08  -1.43030376120240E-15   2.99189926799053E-08
     -1.10476529045972E-16  -4.91084213333333E-01  -4.91084213333333E-01   0.00000000000000E+00   0.00000000000000E+00
     -2.99189914712994E-08  -1.18827883677020E-15  -2.99189926595782E-08  -2.99208096997732E-16
      5.95649125925926E-01
      0.00000000000000E+00   0.00000000000000E+00   0.00000000000000E+00   0.00000000000000E+00   0.00000000000000E+00
      0.00000000000000E+00   0.00000000000000E+00   4.25309230553468E-16   0.00000000000000E+00   0.00000000000000E+00
      0.00000000000000E+00   0.00000000000000E+00   3.08422784668223E-08  -5.67564708844682E-16   3.08422778992576E-08
     -1.10464749483015E-16  -5.36084213333333E-01  -5.36084213333333E-01   0.00000000000000E+00   0.00000000000000E+00
     -3.08422743240666E-08  -3.56278872393694E-15  -3.08422778868554E-08  -3.16028793175587E-16
      6.45649125925926E-01
      0.00000000000000E+00   0.00000000000000E+00   0.00000000000000E+00   0.00000000000000E+00   0.00000000000000E+00
      0.00000000000000E+00   0.00000000000000E+00   4.42042773010947E-16   0.00000000000000E+00   0.00000000000000E+00
      0.00000000000000E+00   0.00000000000000E+00   3.17611475577962E-08   1.40251552791023E-16   3.17611476980477E-08
     -1.10453027010205E-16  -5.81084213333333E-01  -5.81084213333333E-01   0.00000000000000E+00   0.00000000000000E+00
     -3.17611450692696E-08  -2.62405720377171E-15  -3.17611476933268E-08  -3.32774263213763E-16
      6.95649125925926E-01
      0.00000000000000E+00   0.00000000000000E+00   0.00000000000000E+00   0.00000000000000E+00   0.00000000000000E+00
      0.00000000000000E+00   0.00000000000000E+00   4.58698975347675E-16   0.00000000000000E+00   0.00000000000000E+00
      0.00000000000000E+00   0.00000000000000E+00   3.26759739907024E-08  -2.16227509939731E-17   3.26759739690797E-08
     -1.10441365144732E-16  -6.26084213333333E-01  -6.26084213333333E-01   0.00000000000000E+00   0.00000000000000E+00
     -3.26759739888554E-08   1.97818724117427E-17  -3.26759739690735E-08  -3.49442332671372E-16
      7.45649125925926E-01
      0.00000000000000E+00   0.00000000000000E+00   0.00000000000000E+00   0.00000000000000E+00   0.00000000000000E+00
      0.00000000000000E+00   0.00000000000000E+00   4.75275728784444E-16   0.00000000000000E+00   0.00000000000000E+00
      0.00000000000000E+00   0.00000000000000E+00   3.35870050505554E-08  -3.51049175960930E-16   3.35870046995062E-08
     -1.10429767684905E-16  -6.71084213333333E-01  -6.71084213333333E-01   0.00000000000000E+00   0.00000000000000E+00
     -3.35870010491163E-08  -3.65037191704813E-15  -3.35870046994883E-08  -3.66030887636406E-16
      7.95649125925926E-01
      0.00000000000000E+00   0.00000000000000E+00   0.00000000000000E+00   0.00000000000000E+00   0.00000000000000E+00
      0.00000000000000E+00   0.00000000000000E+00   4.91770987005359E-16   0.00000000000000E+00   0.00000000000000E+00
      0.00000000000000E+00   0.00000000000000E+00   3.44943828264893E-08   9.04949156479701E-18   3.44943828355388E-08
     -1.10418238679733E-16  -7.16084213333333E-01  -7.16084213333333E-01   0.00000000000000E+00   0.00000000000000E+00
     -3.44943827553562E-08  -8.01662548254990E-17  -3.44943828355224E-08  -3.82537876222233E-16
      8.45649125925926E-01
      0.00000000000000E+00   0.00000000000000E+00   0.00000000000000E+00   0.00000000000000E+00   0.00000000000000E+00
      0.00000000000000E+00   0.00000000000000E+00   5.08182734996798E-16   0.00000000000000E+00   0.00000000000000E+00
      0.00000000000000E+00   0.00000000000000E+00   3.53981536833486E-08   4.25961499459129E-17   3.53981537259448E-08
     -1.10406782537990E-16  -7.61084213333334E-01  -7.61084213333334E-01   0.00000000000000E+00   0.00000000000000E+00
     -3.53981538836899E-08   1.57737480815760E-16  -3.53981537259524E-08  -3.98961278818781E-16
      8.95649125925926E-01
      0.00000000000000E+00   0.00000000000000E+00   0.00000000000000E+00   0.00000000000000E+00   0.00000000000000E+00
      0.00000000000000E+00   0.00000000000000E+00   5.24508930966614E-16   0.00000000000000E+00   0.00000000000000E+00
      0.00000000000000E+00   0.00000000000000E+00   3.62982644949809E-08   3.17509377907305E-17   3.62982645267318E-08
     -1.10395404213924E-16  -8.06084213333334E-01  -8.06084213333334E-01   0.00000000000000E+00   0.00000000000000E+00
     -3.62982648750987E-08   3.48326322025227E-16  -3.62982645267724E-08  -4.15299051790790E-16
      9.45649125925926E-01
      0.00000000000000E+00   0.00000000000000E+00   0.00000000000000E+00   0.00000000000000E+00   0.00000000000000E+00
      0.00000000000000E+00   0.00000000000000E+00   5.40747425289379E-16   0.00000000000000E+00   0.00000000000000E+00
      0.00000000000000E+00   0.00000000000000E+00   3.71945738180384E-08   4.16053630123535E-17   3.71945738596437E-08
     -1.10384109097720E-16  -8.51084213333334E-01  -8.51084213333334E-01   0.00000000000000E+00   0.00000000000000E+00
     -3.71945742183689E-08   3.58742268743547E-16  -3.71945738596267E-08  -4.31549043578444E-16
      9.95649125925926E-01
      0.00000000000000E+00   0.00000000000000E+00   0.00000000000000E+00   0.00000000000000E+00   0.00000000000000E+00
      0.00000000000000E+00   0.00000000000000E+00   5.56895847968639E-16   0.00000000000000E+00   0.00000000000000E+00
      0.00000000000000E+00   0.00000000000000E+00   3.80868610122943E-08   3.30148415592366E-17   3.80868610453091E-08
     -1.10372902866745E-16  -8.96084213333334E-01  -8.96084213333334E-01   0.00000000000000E+00   0.00000000000000E+00
     -3.80868610531515E-08   7.86039737647186E-18  -3.80868610452911E-08  -4.47708878301899E-16
      1.00000000000000E+00
      0.00000000000000E+00   0.00000000000000E+00   0.00000000000000E+00   0.00000000000000E+00   0.00000000000000E+00
      0.00000000000000E+00   0.00000000000000E+00   5.58296696406785E-16   0.00000000000000E+00   0.00000000000000E+00
      0.00000000000000E+00   0.00000000000000E+00   3.81643058619255E-08  -1.42533449970976E-17   3.81643058476721E-08
     -1.10371932132401E-16  -9.00000000000000E-01  -9.00000000000000E-01   0.00000000000000E+00   0.00000000000000E+00
     -3.81643058590736E-08   1.14010153790663E-17  -3.81643058476726E-08  -4.49110715480094E-16
}
