DF-ISE text

Info {
  version   = 1.0
  type      = xyplot
  datasets  = [
    "time"
    "gate OuterVoltage" "gate InnerVoltage" "gate QuasiFermiPotential" "gate DisplacementCurrent" "gate eCurrent"
    "gate hCurrent" "gate TotalCurrent" "gate Charge" "source OuterVoltage" "source InnerVoltage"
    "source QuasiFermiPotential" "source DisplacementCurrent" "source eCurrent" "source hCurrent" "source TotalCurrent"
    "source Charge" "drain OuterVoltage" "drain InnerVoltage" "drain QuasiFermiPotential" "drain DisplacementCurrent"
    "drain eCurrent" "drain hCurrent" "drain TotalCurrent" "drain Charge" ]
  functions = [
    Time
    OuterVoltage InnerVoltage QuasiFermiPotential DisplacementCurrent eCurrent
    hCurrent TotalCurrent Charge OuterVoltage InnerVoltage
    QuasiFermiPotential DisplacementCurrent eCurrent hCurrent TotalCurrent
    Charge OuterVoltage InnerVoltage QuasiFermiPotential DisplacementCurrent
    eCurrent hCurrent TotalCurrent Charge ]
}

Data {
      0.00000000000000E+00
      0.00000000000000E+00   0.00000000000000E+00   0.00000000000000E+00   0.00000000000000E+00   0.00000000000000E+00
      0.00000000000000E+00   0.00000000000000E+00  -2.21652345404271E-16   0.00000000000000E+00   0.00000000000000E+00
      0.00000000000000E+00   0.00000000000000E+00   3.17528516455591E-20  -1.66846594251773E-31   3.17528516453923E-20
      1.11222881166646E-16   0.00000000000000E+00   0.00000000000000E+00   0.00000000000000E+00   0.00000000000000E+00
      4.78296349446552E-21  -1.50901390368268E-31   4.78296349431462E-21   1.11642192348622E-16
      0.00000000000000E+00
      0.00000000000000E+00   0.00000000000000E+00   0.00000000000000E+00   0.00000000000000E+00   0.00000000000000E+00
      0.00000000000000E+00   0.00000000000000E+00  -2.40622464494666E-16   0.00000000000000E+00   0.00000000000000E+00
      0.00000000000000E+00   0.00000000000000E+00  -2.25645050738247E-19  -1.42623912373954E-31  -2.25645050738390E-19
      1.21145866653422E-16   0.00000000000000E+00   0.00000000000000E+00   0.00000000000000E+00   0.00000000000000E+00
      4.20066997037572E-20  -1.17127893070703E-31   4.20066997036401E-20   1.20974266460657E-16
      0.00000000000000E+00
      0.00000000000000E+00   0.00000000000000E+00   0.00000000000000E+00   0.00000000000000E+00   0.00000000000000E+00
      0.00000000000000E+00   0.00000000000000E+00  -2.40622463906479E-16   0.00000000000000E+00   0.00000000000000E+00
      0.00000000000000E+00   0.00000000000000E+00   1.61009522423067E-17  -2.91801192681075E-30   1.61009522423038E-17
      1.21145866376216E-16   0.00000000000000E+00   0.00000000000000E+00   0.00000000000000E+00   0.00000000000000E+00
      4.11769132176452E-18  -6.49905704373795E-30   4.11769132175803E-18   1.20974266299135E-16
      1.00000000000000E-03
      0.00000000000000E+00   0.00000000000000E+00   0.00000000000000E+00   0.00000000000000E+00   0.00000000000000E+00
      0.00000000000000E+00   0.00000000000000E+00  -2.40866710231798E-16   0.00000000000000E+00   0.00000000000000E+00
      0.00000000000000E+00   0.00000000000000E+00  -1.00296114519417E-09  -3.14612917520746E-27  -1.00296114519417E-09
      1.21145637988942E-16   6.50000000000000E-04   6.50000000000000E-04   0.00000000000000E+00   0.00000000000000E+00
      1.01251996129332E-09   8.40409225665796E-27   1.01251996129332E-09   1.21217781287824E-16
      2.86666666666667E-03
      0.00000000000000E+00   0.00000000000000E+00   0.00000000000000E+00   0.00000000000000E+00   0.00000000000000E+00
      0.00000000000000E+00   0.00000000000000E+00  -2.41322523245861E-16   0.00000000000000E+00   0.00000000000000E+00
      0.00000000000000E+00   0.00000000000000E+00  -2.65642073052792E-09  -8.76261414258652E-27  -2.65642073052792E-09
      1.21145211521681E-16   1.86333333333333E-03   1.86333333333333E-03   0.00000000000000E+00   0.00000000000000E+00
      2.65643457042858E-09  -2.26431752092085E-26   2.65643457042858E-09   1.21672252990561E-16
      6.60000000000000E-03
      0.00000000000000E+00   0.00000000000000E+00   0.00000000000000E+00   0.00000000000000E+00   0.00000000000000E+00
      0.00000000000000E+00   0.00000000000000E+00  -2.42233708644711E-16   0.00000000000000E+00   0.00000000000000E+00
      0.00000000000000E+00   0.00000000000000E+00  -5.26095207017526E-09  -1.87038185102112E-26  -5.26095207017526E-09
      1.21144358330352E-16   4.29000000000000E-03   4.29000000000000E-03   0.00000000000000E+00   0.00000000000000E+00
      5.26117398740349E-09  -5.10205697492752E-26   5.26117398740349E-09   1.22580846725970E-16
      1.40666666666667E-02
      0.00000000000000E+00   0.00000000000000E+00   0.00000000000000E+00   0.00000000000000E+00   0.00000000000000E+00
      0.00000000000000E+00   0.00000000000000E+00  -2.44054337939666E-16   0.00000000000000E+00   0.00000000000000E+00
      0.00000000000000E+00   0.00000000000000E+00  -8.51524937339210E-09  -2.08435134380968E-29  -8.51524937339210E-09
      1.21142652599528E-16   9.14333333333333E-03   9.14333333333333E-03   0.00000000000000E+00   0.00000000000000E+00
      8.51524937333863E-09   8.66189615873359E-29   8.51524937333863E-09   1.24396639891530E-16
      2.70088888888889E-02
      0.00000000000000E+00   0.00000000000000E+00   0.00000000000000E+00   0.00000000000000E+00   0.00000000000000E+00
      0.00000000000000E+00   0.00000000000000E+00  -2.47204713630507E-16   0.00000000000000E+00   0.00000000000000E+00
      0.00000000000000E+00   0.00000000000000E+00  -1.08678503846261E-08   4.58534032384887E-26  -1.08678503846261E-08
      1.21139703434308E-16   1.75557777777778E-02   1.75557777777778E-02   0.00000000000000E+00   0.00000000000000E+00
      1.08678456131796E-08   7.84052760500407E-26   1.08678456131796E-08   1.27539641637838E-16
      5.11677037037037E-02
      0.00000000000000E+00   0.00000000000000E+00   0.00000000000000E+00   0.00000000000000E+00   0.00000000000000E+00
      0.00000000000000E+00   0.00000000000000E+00  -2.53067852318568E-16   0.00000000000000E+00   0.00000000000000E+00
      0.00000000000000E+00   0.00000000000000E+00  -1.14847499910539E-08  -1.87286075613773E-27  -1.14847499910539E-08
      1.21134235020432E-16   3.32590074074074E-02   3.32590074074074E-02   0.00000000000000E+00   0.00000000000000E+00
      1.14847499906345E-08   5.53917068993817E-28   1.14847499906345E-08   1.33391962164589E-16
      8.98218074074074E-02
      0.00000000000000E+00   0.00000000000000E+00   0.00000000000000E+00   0.00000000000000E+00   0.00000000000000E+00
      0.00000000000000E+00   0.00000000000000E+00  -2.62404171833872E-16   0.00000000000000E+00   0.00000000000000E+00
      0.00000000000000E+00   0.00000000000000E+00  -1.12517716558074E-08  -6.27976284823971E-26  -1.12517716558074E-08
      1.21125589365964E-16   5.83841748148148E-02   5.83841748148148E-02   0.00000000000000E+00   0.00000000000000E+00
      1.12517716007577E-08  -5.53837094265399E-26   1.12517716007577E-08   1.42717197902378E-16
      1.14821807407407E-01
      0.00000000000000E+00   0.00000000000000E+00   0.00000000000000E+00   0.00000000000000E+00   0.00000000000000E+00
      0.00000000000000E+00   0.00000000000000E+00  -2.68415138878482E-16   0.00000000000000E+00   0.00000000000000E+00
      0.00000000000000E+00   0.00000000000000E+00  -1.13858816075738E-08  -1.27862878247304E-25  -1.13858816075738E-08
      1.21120060356811E-16   7.46341748148148E-02   7.46341748148148E-02   0.00000000000000E+00   0.00000000000000E+00
      1.13858815589292E-08  -8.82634928458169E-26   1.13858815589292E-08   1.48724055981275E-16
      1.34821807407407E-01
      0.00000000000000E+00   0.00000000000000E+00   0.00000000000000E+00   0.00000000000000E+00   0.00000000000000E+00
      0.00000000000000E+00   0.00000000000000E+00  -2.73209287481881E-16   0.00000000000000E+00   0.00000000000000E+00
      0.00000000000000E+00   0.00000000000000E+00  -1.15942266982537E-08  -1.44432341546578E-31  -1.15942266982537E-08
      1.21115669615504E-16   8.76341748148148E-02   8.76341748148148E-02   0.00000000000000E+00   0.00000000000000E+00
      1.15942266984572E-08  -4.38435537008724E-31   1.15942266984572E-08   1.53516238828376E-16
      1.61488474074074E-01
      0.00000000000000E+00   0.00000000000000E+00   0.00000000000000E+00   0.00000000000000E+00   0.00000000000000E+00
      0.00000000000000E+00   0.00000000000000E+00  -2.79582164595198E-16   0.00000000000000E+00   0.00000000000000E+00
      0.00000000000000E+00   0.00000000000000E+00  -1.19226703918610E-08   3.61939084110375E-25  -1.19226703918610E-08
      1.21109857379263E-16   1.04967508148148E-01   1.04967508148148E-01   0.00000000000000E+00   0.00000000000000E+00
      1.19226703672131E-08   1.50794961072888E-25   1.19226703672131E-08   1.59887961698244E-16
      1.82821807407407E-01
      0.00000000000000E+00   0.00000000000000E+00   0.00000000000000E+00   0.00000000000000E+00   0.00000000000000E+00
      0.00000000000000E+00   0.00000000000000E+00  -2.84665201115531E-16   0.00000000000000E+00   0.00000000000000E+00
      0.00000000000000E+00   0.00000000000000E+00  -1.21934730831729E-08  -1.09991614575106E-30  -1.21934730831729E-08
      1.21105240375132E-16   1.18834174814815E-01   1.18834174814815E-01   0.00000000000000E+00   0.00000000000000E+00
      1.21934730835083E-08   6.13994100591710E-32   1.21934730835083E-08   1.64971058864340E-16
      2.11266251851852E-01
      0.00000000000000E+00   0.00000000000000E+00   0.00000000000000E+00   0.00000000000000E+00   0.00000000000000E+00
      0.00000000000000E+00   0.00000000000000E+00  -2.91422366291907E-16   0.00000000000000E+00   0.00000000000000E+00
      0.00000000000000E+00   0.00000000000000E+00  -1.25425821634391E-08  -7.72412705240062E-25  -1.25425821634391E-08
      1.21099127207600E-16   1.37323063703704E-01   1.37323063703704E-01   0.00000000000000E+00   0.00000000000000E+00
      1.25425828651803E-08  -1.76595083656395E-25   1.25425828651803E-08   1.71729390412636E-16
      2.34021807407407E-01
      0.00000000000000E+00   0.00000000000000E+00   0.00000000000000E+00   0.00000000000000E+00   0.00000000000000E+00
      0.00000000000000E+00   0.00000000000000E+00  -2.96812094265379E-16   0.00000000000000E+00   0.00000000000000E+00
      0.00000000000000E+00   0.00000000000000E+00  -1.28070673589091E-08  -5.76042654563367E-25  -1.28070673589091E-08
      1.21094270213379E-16   1.52114174814815E-01   1.52114174814815E-01   0.00000000000000E+00   0.00000000000000E+00
      1.28070673593555E-08  -1.15424324495724E-25   1.28070673593555E-08   1.77120774172943E-16
      2.67396622222222E-01
      0.00000000000000E+00   0.00000000000000E+00   0.00000000000000E+00   0.00000000000000E+00   0.00000000000000E+00
      0.00000000000000E+00   0.00000000000000E+00  -3.04692370524014E-16   0.00000000000000E+00   0.00000000000000E+00
      0.00000000000000E+00   0.00000000000000E+00  -1.31685904890266E-08  -7.23691440298321E-26  -1.31685904890266E-08
      1.21087197681359E-16   1.73807804444445E-01   1.73807804444445E-01   0.00000000000000E+00   0.00000000000000E+00
      1.31685904864432E-08  -9.58063607596824E-27   1.31685904864432E-08   1.85004389361334E-16
      2.89646498765432E-01
      0.00000000000000E+00   0.00000000000000E+00   0.00000000000000E+00   0.00000000000000E+00   0.00000000000000E+00
      0.00000000000000E+00   0.00000000000000E+00  -3.09930197778797E-16   0.00000000000000E+00   0.00000000000000E+00
      0.00000000000000E+00   0.00000000000000E+00  -1.33935872424573E-08  -1.27191233752195E-25  -1.33935872424573E-08
      1.21082514823002E-16   1.88270224197531E-01   1.88270224197531E-01   0.00000000000000E+00   0.00000000000000E+00
      1.33935875589431E-08  -9.07030024614672E-27   1.33935875589431E-08   1.90244922516183E-16
      3.25246301234568E-01
      0.00000000000000E+00   0.00000000000000E+00   0.00000000000000E+00   0.00000000000000E+00   0.00000000000000E+00
      0.00000000000000E+00   0.00000000000000E+00  -3.18285671338774E-16   0.00000000000000E+00   0.00000000000000E+00
      0.00000000000000E+00   0.00000000000000E+00  -1.37394679211928E-08  -6.64660817737181E-25  -1.37394679211928E-08
      1.21075073060006E-16   2.11410095802469E-01   2.11410095802469E-01   0.00000000000000E+00   0.00000000000000E+00
      1.37394681844673E-08  -3.74351777632949E-26   1.37394681844673E-08   1.98605341585470E-16
      3.75246301234568E-01
      0.00000000000000E+00   0.00000000000000E+00   0.00000000000000E+00   0.00000000000000E+00   0.00000000000000E+00
      0.00000000000000E+00   0.00000000000000E+00  -3.29971230598328E-16   0.00000000000000E+00   0.00000000000000E+00
      0.00000000000000E+00   0.00000000000000E+00  -1.42102909110720E-08  -3.87428730355019E-24  -1.42102909110720E-08
      1.21064720730616E-16   2.43910095802469E-01   2.43910095802469E-01   0.00000000000000E+00   0.00000000000000E+00
      1.42102904607802E-08  -1.40159562171827E-25   1.42102904607802E-08   2.10298790552659E-16
      4.00246301234568E-01
      0.00000000000000E+00   0.00000000000000E+00   0.00000000000000E+00   0.00000000000000E+00   0.00000000000000E+00
      0.00000000000000E+00   0.00000000000000E+00  -3.35793182296349E-16   0.00000000000000E+00   0.00000000000000E+00
      0.00000000000000E+00   0.00000000000000E+00  -1.44456703309530E-08  -2.59530272677586E-26  -1.44456703309530E-08
      1.21059585817718E-16   2.60160095802469E-01   2.60160095802469E-01   0.00000000000000E+00   0.00000000000000E+00
      1.44456703290461E-08  -8.94448104922058E-27   1.44456703290461E-08   2.16124985399136E-16
      4.36912967901235E-01
      0.00000000000000E+00   0.00000000000000E+00   0.00000000000000E+00   0.00000000000000E+00   0.00000000000000E+00
      0.00000000000000E+00   0.00000000000000E+00  -3.44307968987354E-16   0.00000000000000E+00   0.00000000000000E+00
      0.00000000000000E+00   0.00000000000000E+00  -1.47905690086944E-08   7.30269652425220E-25  -1.47905690086944E-08
      1.21052101769771E-16   2.83993429135803E-01   2.83993429135803E-01   0.00000000000000E+00   0.00000000000000E+00
      1.47905688669005E-08   2.09965933331901E-26   1.47905688669005E-08   2.24646258799919E-16
      4.86912967901235E-01
      0.00000000000000E+00   0.00000000000000E+00   0.00000000000000E+00   0.00000000000000E+00   0.00000000000000E+00
      0.00000000000000E+00   0.00000000000000E+00  -3.55874716067619E-16   0.00000000000000E+00   0.00000000000000E+00
      0.00000000000000E+00   0.00000000000000E+00  -1.52688630077931E-08  -1.96369063472086E-25  -1.52688630077931E-08
      1.21041982140945E-16   3.16493429135803E-01   3.16493429135803E-01   0.00000000000000E+00   0.00000000000000E+00
      1.52688630699120E-08  -2.66143663941967E-25   1.52688630699120E-08   2.36222206766316E-16
      5.36912967901235E-01
      0.00000000000000E+00   0.00000000000000E+00   0.00000000000000E+00   0.00000000000000E+00   0.00000000000000E+00
      0.00000000000000E+00   0.00000000000000E+00  -3.67392623241322E-16   0.00000000000000E+00   0.00000000000000E+00
      0.00000000000000E+00   0.00000000000000E+00  -1.57535403191826E-08  -3.65477695491262E-26  -1.57535403191826E-08
      1.21031955977619E-16   3.48993429135803E-01   3.48993429135803E-01   0.00000000000000E+00   0.00000000000000E+00
      1.57535404301713E-08  -1.31437163567496E-26   1.57535404301713E-08   2.47749581643747E-16
      5.61912967901235E-01
      0.00000000000000E+00   0.00000000000000E+00   0.00000000000000E+00   0.00000000000000E+00   0.00000000000000E+00
      0.00000000000000E+00   0.00000000000000E+00  -3.73133974658675E-16   0.00000000000000E+00   0.00000000000000E+00
      0.00000000000000E+00   0.00000000000000E+00  -1.59981987909886E-08  -5.89200407497681E-27  -1.59981987909886E-08
      1.21026976219123E-16   3.65243429135803E-01   3.65243429135803E-01   0.00000000000000E+00   0.00000000000000E+00
      1.59982026083888E-08   5.19708063483202E-28   1.59982026083888E-08   2.53495734975410E-16
      5.95246301234568E-01
      0.00000000000000E+00   0.00000000000000E+00   0.00000000000000E+00   0.00000000000000E+00   0.00000000000000E+00
      0.00000000000000E+00   0.00000000000000E+00  -3.80771450359138E-16   0.00000000000000E+00   0.00000000000000E+00
      0.00000000000000E+00   0.00000000000000E+00  -1.63253521107446E-08   7.33240209908475E-26  -1.63253521107446E-08
      1.21020369658611E-16   3.86910095802469E-01   3.86910095802469E-01   0.00000000000000E+00   0.00000000000000E+00
      1.63254811282381E-08  -7.09791441659831E-25   1.63254811282381E-08   2.61139656188634E-16
      6.45246301234568E-01
      0.00000000000000E+00   0.00000000000000E+00   0.00000000000000E+00   0.00000000000000E+00   0.00000000000000E+00
      0.00000000000000E+00   0.00000000000000E+00  -3.92190976602627E-16   0.00000000000000E+00   0.00000000000000E+00
      0.00000000000000E+00   0.00000000000000E+00  -1.68141105692468E-08   1.69133032780310E-24  -1.68141105692468E-08
      1.21010528012260E-16   4.19410095802469E-01   4.19410095802469E-01   0.00000000000000E+00   0.00000000000000E+00
      1.68143182031169E-08  -1.79101658078894E-26   1.68143182031169E-08   2.72568907240665E-16
      6.95246301234568E-01
      0.00000000000000E+00   0.00000000000000E+00   0.00000000000000E+00   0.00000000000000E+00   0.00000000000000E+00
      0.00000000000000E+00   0.00000000000000E+00  -4.03568035748664E-16   0.00000000000000E+00   0.00000000000000E+00
      0.00000000000000E+00   0.00000000000000E+00  -1.73022375686545E-08  -2.92257864617394E-24  -1.73022375686545E-08
      1.21000764488181E-16   4.51910095802469E-01   4.51910095802469E-01   0.00000000000000E+00   0.00000000000000E+00
      1.73023785502120E-08  -1.78750634402787E-23   1.73023785502119E-08   2.83955728525635E-16
      7.45246301234568E-01
      0.00000000000000E+00   0.00000000000000E+00   0.00000000000000E+00   0.00000000000000E+00   0.00000000000000E+00
      0.00000000000000E+00   0.00000000000000E+00  -4.14904250018681E-16   0.00000000000000E+00   0.00000000000000E+00
      0.00000000000000E+00   0.00000000000000E+00  -1.77868308361129E-08   1.41596316645643E-23  -1.77868308361128E-08
      1.20991075203529E-16   4.84410095802469E-01   4.84410095802469E-01   0.00000000000000E+00   0.00000000000000E+00
      1.77871060478549E-08  -4.61876366155321E-25   1.77871060478549E-08   2.95301701286626E-16
      7.95246301234568E-01
      0.00000000000000E+00   0.00000000000000E+00   0.00000000000000E+00   0.00000000000000E+00   0.00000000000000E+00
      0.00000000000000E+00   0.00000000000000E+00  -4.26201054439274E-16   0.00000000000000E+00   0.00000000000000E+00
      0.00000000000000E+00   0.00000000000000E+00  -1.82689100302621E-08  -1.92538062696350E-24  -1.82689100302622E-08
      1.20981456721764E-16   5.16910095802469E-01   5.16910095802469E-01   0.00000000000000E+00   0.00000000000000E+00
      1.82696113282696E-08  -1.59765922864506E-23   1.82696113282696E-08   3.06608252050491E-16
      8.45246301234568E-01
      0.00000000000000E+00   0.00000000000000E+00   0.00000000000000E+00   0.00000000000000E+00   0.00000000000000E+00
      0.00000000000000E+00   0.00000000000000E+00  -4.37459792918679E-16   0.00000000000000E+00   0.00000000000000E+00
      0.00000000000000E+00   0.00000000000000E+00  -1.87493676049189E-08   1.77998323754744E-23  -1.87493676049189E-08
      1.20971905765939E-16   5.49410095802469E-01   5.49410095802469E-01   0.00000000000000E+00   0.00000000000000E+00
      1.87484641845804E-08   3.35255848187696E-24   1.87484641845804E-08   3.17876698351282E-16
      8.95246301234568E-01
      0.00000000000000E+00   0.00000000000000E+00   0.00000000000000E+00   0.00000000000000E+00   0.00000000000000E+00
      0.00000000000000E+00   0.00000000000000E+00  -4.48681656166336E-16   0.00000000000000E+00   0.00000000000000E+00
      0.00000000000000E+00   0.00000000000000E+00  -1.92287543479025E-08   5.54717271253974E-23  -1.92287543479025E-08
      1.20962419329517E-16   5.81910095802469E-01   5.81910095802469E-01   0.00000000000000E+00   0.00000000000000E+00
      1.92299268519914E-08  -3.98063535980951E-23   1.92299268519913E-08   3.29108227171965E-16
      9.45246301234568E-01
      0.00000000000000E+00   0.00000000000000E+00   0.00000000000000E+00   0.00000000000000E+00   0.00000000000000E+00
      0.00000000000000E+00   0.00000000000000E+00  -4.59867748752469E-16   0.00000000000000E+00   0.00000000000000E+00
      0.00000000000000E+00   0.00000000000000E+00  -1.97074520586437E-08  -3.36438295293191E-22  -1.97074520586441E-08
      1.20952994450445E-16   6.14410095802469E-01   6.14410095802469E-01   0.00000000000000E+00   0.00000000000000E+00
      1.97101541030033E-08  -2.12363648662128E-23   1.97101541030033E-08   3.40303932799684E-16
      9.95246301234568E-01
      0.00000000000000E+00   0.00000000000000E+00   0.00000000000000E+00   0.00000000000000E+00   0.00000000000000E+00
      0.00000000000000E+00   0.00000000000000E+00  -4.71019095854433E-16   0.00000000000000E+00   0.00000000000000E+00
      0.00000000000000E+00   0.00000000000000E+00  -2.01867554107114E-08   2.07152162767291E-22  -2.01867554107112E-08
      1.20943628096900E-16   6.46910095802469E-01   6.46910095802469E-01   0.00000000000000E+00   0.00000000000000E+00
      2.01843301407098E-08   1.69283320045347E-23   2.01843301407098E-08   3.51464823176625E-16
      1.00000000000000E+00
      0.00000000000000E+00   0.00000000000000E+00   0.00000000000000E+00   0.00000000000000E+00   0.00000000000000E+00
      0.00000000000000E+00   0.00000000000000E+00  -4.72077524424139E-16   0.00000000000000E+00   0.00000000000000E+00
      0.00000000000000E+00   0.00000000000000E+00  -2.02323651248850E-08   8.84571968423487E-23  -2.02323651248849E-08
      1.20942740533052E-16   6.50000000000000E-01   6.50000000000000E-01   0.00000000000000E+00   0.00000000000000E+00
      2.02306925037731E-08   3.69906204121468E-22   2.02306925037735E-08   3.52524155081320E-16
}
