DF-ISE text

Info {
  version   = 1.0
  type      = xyplot
  datasets  = [
    "time"
    "gate OuterVoltage" "gate InnerVoltage" "gate QuasiFermiPotential" "gate DisplacementCurrent" "gate eCurrent"
    "gate hCurrent" "gate TotalCurrent" "gate Charge" "source OuterVoltage" "source InnerVoltage"
    "source QuasiFermiPotential" "source DisplacementCurrent" "source eCurrent" "source hCurrent" "source TotalCurrent"
    "source Charge" "drain OuterVoltage" "drain InnerVoltage" "drain QuasiFermiPotential" "drain DisplacementCurrent"
    "drain eCurrent" "drain hCurrent" "drain TotalCurrent" "drain Charge" ]
  functions = [
    Time
    OuterVoltage InnerVoltage QuasiFermiPotential DisplacementCurrent eCurrent
    hCurrent TotalCurrent Charge OuterVoltage InnerVoltage
    QuasiFermiPotential DisplacementCurrent eCurrent hCurrent TotalCurrent
    Charge OuterVoltage InnerVoltage QuasiFermiPotential DisplacementCurrent
    eCurrent hCurrent TotalCurrent Charge ]
}

Data {
      0.00000000000000E+00
      0.00000000000000E+00   0.00000000000000E+00   0.00000000000000E+00   0.00000000000000E+00   0.00000000000000E+00
      0.00000000000000E+00   0.00000000000000E+00  -2.61939570994878E-16   0.00000000000000E+00   0.00000000000000E+00
      0.00000000000000E+00   0.00000000000000E+00   2.34081011114089E-21  -4.00713288816471E-31   2.34081011074018E-21
      1.31300418925443E-16   0.00000000000000E+00   0.00000000000000E+00   0.00000000000000E+00   0.00000000000000E+00
     -6.74768429044845E-22  -3.54924819528258E-31  -6.74768429399770E-22   1.31821249868750E-16
      0.00000000000000E+00
      0.00000000000000E+00   0.00000000000000E+00   0.00000000000000E+00   0.00000000000000E+00   0.00000000000000E+00
      0.00000000000000E+00   0.00000000000000E+00  -2.61939263512321E-16   0.00000000000000E+00   0.00000000000000E+00
      0.00000000000000E+00   0.00000000000000E+00   1.36973652280321E-15   1.30467384631909E-28   1.36973652280334E-15
      1.31300273352118E-16   0.00000000000000E+00   0.00000000000000E+00   0.00000000000000E+00   0.00000000000000E+00
      7.61659998708147E-16  -2.55477207261683E-27   7.61659998705593E-16   1.31821088004400E-16
      0.00000000000000E+00
      0.00000000000000E+00   0.00000000000000E+00   0.00000000000000E+00   0.00000000000000E+00   0.00000000000000E+00
      0.00000000000000E+00   0.00000000000000E+00  -2.61939263510430E-16   0.00000000000000E+00   0.00000000000000E+00
      0.00000000000000E+00   0.00000000000000E+00  -7.99368836744946E-21  -2.94109622782979E-33  -7.99368836745240E-21
      1.31300273351266E-16   0.00000000000000E+00   0.00000000000000E+00   0.00000000000000E+00   0.00000000000000E+00
     -9.60972218038001E-21  -6.25163435577567E-33  -9.60972218038626E-21   1.31821088003364E-16
      1.00000000000000E-03
      0.00000000000000E+00   0.00000000000000E+00   0.00000000000000E+00   0.00000000000000E+00   0.00000000000000E+00
      0.00000000000000E+00   0.00000000000000E+00  -2.61957751656964E-16   0.00000000000000E+00   0.00000000000000E+00
      0.00000000000000E+00   0.00000000000000E+00  -2.07011368325151E-11   2.10012851531621E-27  -2.07011368325151E-11
      1.31300244367784E-16   5.00000000000000E-05   5.00000000000000E-05   0.00000000000000E+00   0.00000000000000E+00
      1.64373952078563E-11  -2.81849356073385E-24   1.64373952078534E-11   1.31839597957940E-16
      3.00000000000000E-03
      0.00000000000000E+00   0.00000000000000E+00   0.00000000000000E+00   0.00000000000000E+00   0.00000000000000E+00
      0.00000000000000E+00   0.00000000000000E+00  -2.61994726978601E-16   0.00000000000000E+00   0.00000000000000E+00
      0.00000000000000E+00   0.00000000000000E+00  -6.15505717157646E-11  -3.76554264722958E-29  -6.15505717157646E-11
      1.31300186403157E-16   1.50000000000000E-04   1.50000000000000E-04   0.00000000000000E+00   0.00000000000000E+00
      6.15488386535476E-11  -5.91037760362354E-28   6.15488386535476E-11   1.31876616932447E-16
      7.00000000000000E-03
      0.00000000000000E+00   0.00000000000000E+00   0.00000000000000E+00   0.00000000000000E+00   0.00000000000000E+00
      0.00000000000000E+00   0.00000000000000E+00  -2.62068675248267E-16   0.00000000000000E+00   0.00000000000000E+00
      0.00000000000000E+00   0.00000000000000E+00  -1.41925818340571E-10  -3.19515517467872E-28  -1.41925818340571E-10
      1.31300070479820E-16   3.50000000000000E-04   3.50000000000000E-04   0.00000000000000E+00   0.00000000000000E+00
      1.41925769370348E-10   1.59891862252844E-27   1.41925769370348E-10   1.31950652597538E-16
      1.50000000000000E-02
      0.00000000000000E+00   0.00000000000000E+00   0.00000000000000E+00   0.00000000000000E+00   0.00000000000000E+00
      0.00000000000000E+00   0.00000000000000E+00  -2.62216561438607E-16   0.00000000000000E+00   0.00000000000000E+00
      0.00000000000000E+00   0.00000000000000E+00  -2.97051944660914E-10   1.69762583580194E-30  -2.97051944660914E-10
      1.31299838659069E-16   7.50000000000000E-04   7.50000000000000E-04   0.00000000000000E+00   0.00000000000000E+00
      2.97051951178637E-10   1.99790816282042E-29   2.97051951178637E-10   1.32098713967728E-16
      3.10000000000000E-02
      0.00000000000000E+00   0.00000000000000E+00   0.00000000000000E+00   0.00000000000000E+00   0.00000000000000E+00
      0.00000000000000E+00   0.00000000000000E+00  -2.62512292494136E-16   0.00000000000000E+00   0.00000000000000E+00
      0.00000000000000E+00   0.00000000000000E+00  -5.86062970959992E-10   1.06821726867431E-28  -5.86062970959992E-10
      1.31299375123268E-16   1.55000000000000E-03   1.55000000000000E-03   0.00000000000000E+00   0.00000000000000E+00
      5.86063072798433E-10  -1.80968744074152E-28   5.86063072798433E-10   1.32394796920011E-16
      6.30000000000000E-02
      0.00000000000000E+00   0.00000000000000E+00   0.00000000000000E+00   0.00000000000000E+00   0.00000000000000E+00
      0.00000000000000E+00   0.00000000000000E+00  -2.63103589868457E-16   0.00000000000000E+00   0.00000000000000E+00
      0.00000000000000E+00   0.00000000000000E+00  -1.08821054933921E-09  -4.85995230659055E-28  -1.08821054933921E-09
      1.31298448488750E-16   3.15000000000000E-03   3.15000000000000E-03   0.00000000000000E+00   0.00000000000000E+00
      1.08821208086556E-09  -1.35470286558846E-27   1.08821208086556E-09   1.32986804087903E-16
      1.13000000000000E-01
      0.00000000000000E+00   0.00000000000000E+00   0.00000000000000E+00   0.00000000000000E+00   0.00000000000000E+00
      0.00000000000000E+00   0.00000000000000E+00  -2.64027054899403E-16   0.00000000000000E+00   0.00000000000000E+00
      0.00000000000000E+00   0.00000000000000E+00  -1.70593900703935E-09   2.65575240423337E-27  -1.70593900703935E-09
      1.31297001842480E-16   5.65000000000000E-03   5.65000000000000E-03   0.00000000000000E+00   0.00000000000000E+00
      1.70594901982240E-09  -9.01984450128293E-27   1.70594901982240E-09   1.33911393521127E-16
      1.63000000000000E-01
      0.00000000000000E+00   0.00000000000000E+00   0.00000000000000E+00   0.00000000000000E+00   0.00000000000000E+00
      0.00000000000000E+00   0.00000000000000E+00  -2.64949991093009E-16   0.00000000000000E+00   0.00000000000000E+00
      0.00000000000000E+00   0.00000000000000E+00  -2.16608917647193E-09   9.60529543255566E-27  -2.16608917647193E-09
      1.31295556747500E-16   8.15000000000000E-03   8.15000000000000E-03   0.00000000000000E+00   0.00000000000000E+00
      2.16610260127833E-09  -3.46239247333088E-26   2.16610260127833E-09   1.34835471793872E-16
      2.13000000000000E-01
      0.00000000000000E+00   0.00000000000000E+00   0.00000000000000E+00   0.00000000000000E+00   0.00000000000000E+00
      0.00000000000000E+00   0.00000000000000E+00  -2.65872403181933E-16   0.00000000000000E+00   0.00000000000000E+00
      0.00000000000000E+00   0.00000000000000E+00  -2.50833965422875E-09   2.75354018277453E-26  -2.50833965422875E-09
      1.31294113252470E-16   1.06500000000000E-02   1.06500000000000E-02   0.00000000000000E+00   0.00000000000000E+00
      2.50835176390083E-09  -1.69155296654398E-26   2.50835176390083E-09   1.35759042524641E-16
      2.63000000000000E-01
      0.00000000000000E+00   0.00000000000000E+00   0.00000000000000E+00   0.00000000000000E+00   0.00000000000000E+00
      0.00000000000000E+00   0.00000000000000E+00  -2.66794295812833E-16   0.00000000000000E+00   0.00000000000000E+00
      0.00000000000000E+00   0.00000000000000E+00  -2.76218751168091E-09   2.41181182320687E-26  -2.76218751168091E-09
      1.31292671387177E-16   1.31500000000000E-02   1.31500000000000E-02   0.00000000000000E+00   0.00000000000000E+00
      2.76219873327907E-09  -1.50730724900245E-26   2.76219873327907E-09   1.36682109315839E-16
      3.13000000000000E-01
      0.00000000000000E+00   0.00000000000000E+00   0.00000000000000E+00   0.00000000000000E+00   0.00000000000000E+00
      0.00000000000000E+00   0.00000000000000E+00  -2.67715673546680E-16   0.00000000000000E+00   0.00000000000000E+00
      0.00000000000000E+00   0.00000000000000E+00  -2.94949796375481E-09  -6.15105897578131E-31  -2.94949796375481E-09
      1.31291231167359E-16   1.56500000000000E-02   1.56500000000000E-02   0.00000000000000E+00   0.00000000000000E+00
      2.94949796376141E-09   2.78561915747853E-31   2.94949796376141E-09   1.37604675740768E-16
      3.63000000000000E-01
      0.00000000000000E+00   0.00000000000000E+00   0.00000000000000E+00   0.00000000000000E+00   0.00000000000000E+00
      0.00000000000000E+00   0.00000000000000E+00  -2.68636540871095E-16   0.00000000000000E+00   0.00000000000000E+00
      0.00000000000000E+00   0.00000000000000E+00  -3.08744967301978E-09  -8.64209419538223E-32  -3.08744967301978E-09
      1.31289792600582E-16   1.81500000000000E-02   1.81500000000000E-02   0.00000000000000E+00   0.00000000000000E+00
      3.08744967301939E-09   8.17310699002808E-32   3.08744967301939E-09   1.38526745357875E-16
      4.13000000000000E-01
      0.00000000000000E+00   0.00000000000000E+00   0.00000000000000E+00   0.00000000000000E+00   0.00000000000000E+00
      0.00000000000000E+00   0.00000000000000E+00  -2.69556902182379E-16   0.00000000000000E+00   0.00000000000000E+00
      0.00000000000000E+00   0.00000000000000E+00  -3.18860761947116E-09   1.58855318630720E-28  -3.18860761947116E-09
      1.31288355686282E-16   2.06500000000000E-02   2.06500000000000E-02   0.00000000000000E+00   0.00000000000000E+00
      3.18860761983455E-09   1.16680710784164E-27   3.18860761983455E-09   1.39448321682321E-16
      4.63000000000000E-01
      0.00000000000000E+00   0.00000000000000E+00   0.00000000000000E+00   0.00000000000000E+00   0.00000000000000E+00
      0.00000000000000E+00   0.00000000000000E+00  -2.70476761801352E-16   0.00000000000000E+00   0.00000000000000E+00
      0.00000000000000E+00   0.00000000000000E+00  -3.26277296790894E-09   3.91663864006277E-28  -3.26277296790894E-09
      1.31286920419463E-16   2.31500000000000E-02   2.31500000000000E-02   0.00000000000000E+00   0.00000000000000E+00
      3.26277296805622E-09   3.30276728238852E-27   3.26277296805622E-09   1.40369408201163E-16
      5.13000000000000E-01
      0.00000000000000E+00   0.00000000000000E+00   0.00000000000000E+00   0.00000000000000E+00   0.00000000000000E+00
      0.00000000000000E+00   0.00000000000000E+00  -2.71396123972210E-16   0.00000000000000E+00   0.00000000000000E+00
      0.00000000000000E+00   0.00000000000000E+00  -3.31744318335376E-09   3.77863645826497E-27  -3.31744318335376E-09
      1.31285486791510E-16   2.56500000000000E-02   2.56500000000000E-02   0.00000000000000E+00   0.00000000000000E+00
      3.31744318019672E-09   8.22764768597654E-28   3.31744318019672E-09   1.41290008367635E-16
      5.63000000000000E-01
      0.00000000000000E+00   0.00000000000000E+00   0.00000000000000E+00   0.00000000000000E+00   0.00000000000000E+00
      0.00000000000000E+00   0.00000000000000E+00  -2.72314992861504E-16   0.00000000000000E+00   0.00000000000000E+00
      0.00000000000000E+00   0.00000000000000E+00  -3.35831165415371E-09  -6.42292015062778E-30  -3.35831165415371E-09
      1.31284054791382E-16   2.81500000000000E-02   2.81500000000000E-02   0.00000000000000E+00   0.00000000000000E+00
      3.35831165415146E-09   4.48269619754583E-31   3.35831165415146E-09   1.42210125600403E-16
      6.13000000000000E-01
      0.00000000000000E+00   0.00000000000000E+00   0.00000000000000E+00   0.00000000000000E+00   0.00000000000000E+00
      0.00000000000000E+00   0.00000000000000E+00  -2.73233372564165E-16   0.00000000000000E+00   0.00000000000000E+00
      0.00000000000000E+00   0.00000000000000E+00  -3.38964295309367E-09  -1.40963252466825E-27  -3.38964295309367E-09
      1.31282624405944E-16   3.06500000000000E-02   3.06500000000000E-02   0.00000000000000E+00   0.00000000000000E+00
      3.38964295277299E-09   3.24081652360311E-28   3.38964295277299E-09   1.43129763282439E-16
      6.63000000000000E-01
      0.00000000000000E+00   0.00000000000000E+00   0.00000000000000E+00   0.00000000000000E+00   0.00000000000000E+00
      0.00000000000000E+00   0.00000000000000E+00  -2.74151267098969E-16   0.00000000000000E+00   0.00000000000000E+00
      0.00000000000000E+00   0.00000000000000E+00  -3.41456694909532E-09  -4.87615646793176E-28  -3.41456694909532E-09
      1.31281195620983E-16   3.31500000000000E-02   3.31500000000000E-02   0.00000000000000E+00   0.00000000000000E+00
      3.41456694923591E-09   3.96568893126375E-29   3.41456694923591E-09   1.44048924761003E-16
      7.13000000000000E-01
      0.00000000000000E+00   0.00000000000000E+00   0.00000000000000E+00   0.00000000000000E+00   0.00000000000000E+00
      0.00000000000000E+00   0.00000000000000E+00  -2.75068680411315E-16   0.00000000000000E+00   0.00000000000000E+00
      0.00000000000000E+00   0.00000000000000E+00  -3.43532022771374E-09  -2.71762144798937E-28  -3.43532022771374E-09
      1.31279768421478E-16   3.56500000000000E-02   3.56500000000000E-02   0.00000000000000E+00   0.00000000000000E+00
      3.43532022767306E-09  -8.87910210675093E-29   3.43532022767306E-09   1.44967613347138E-16
      7.63000000000000E-01
      0.00000000000000E+00   0.00000000000000E+00   0.00000000000000E+00   0.00000000000000E+00   0.00000000000000E+00
      0.00000000000000E+00   0.00000000000000E+00  -2.75985616372924E-16   0.00000000000000E+00   0.00000000000000E+00
      0.00000000000000E+00   0.00000000000000E+00  -3.45345030008377E-09  -1.85604626799253E-28  -3.45345030008377E-09
      1.31278342791997E-16   3.81500000000000E-02   3.81500000000000E-02   0.00000000000000E+00   0.00000000000000E+00
      3.45345029985337E-09   1.35911023677119E-28   3.45345029985337E-09   1.45885832315576E-16
      8.13000000000000E-01
      0.00000000000000E+00   0.00000000000000E+00   0.00000000000000E+00   0.00000000000000E+00   0.00000000000000E+00
      0.00000000000000E+00   0.00000000000000E+00  -2.76902078782254E-16   0.00000000000000E+00   0.00000000000000E+00
      0.00000000000000E+00   0.00000000000000E+00  -3.46998938442877E-09  -8.66880237265545E-29  -3.46998938442877E-09
      1.31276918717016E-16   4.06500000000000E-02   4.06500000000000E-02   0.00000000000000E+00   0.00000000000000E+00
      3.46998938428851E-09   3.18378369867930E-28   3.46998938428851E-09   1.46803584904678E-16
      8.63000000000000E-01
      0.00000000000000E+00   0.00000000000000E+00   0.00000000000000E+00   0.00000000000000E+00   0.00000000000000E+00
      0.00000000000000E+00   0.00000000000000E+00  -2.77818071365409E-16   0.00000000000000E+00   0.00000000000000E+00
      0.00000000000000E+00   0.00000000000000E+00  -3.48559913410149E-09  -1.82789761579410E-29  -3.48559913410149E-09
      1.31275496181120E-16   4.31500000000000E-02   4.31500000000000E-02   0.00000000000000E+00   0.00000000000000E+00
      3.48559913447454E-09   3.60785751647450E-28   3.48559913447454E-09   1.47720874316477E-16
      9.13000000000000E-01
      0.00000000000000E+00   0.00000000000000E+00   0.00000000000000E+00   0.00000000000000E+00   0.00000000000000E+00
      0.00000000000000E+00   0.00000000000000E+00  -2.78733597777581E-16   0.00000000000000E+00   0.00000000000000E+00
      0.00000000000000E+00   0.00000000000000E+00  -3.50068629812531E-09  -2.53874885848351E-28  -3.50068629812531E-09
      1.31274075169134E-16   4.56500000000000E-02   4.56500000000000E-02   0.00000000000000E+00   0.00000000000000E+00
      3.50068629832515E-09   4.50829519250733E-28   3.50068629832515E-09   1.48637703716784E-16
      9.63000000000000E-01
      0.00000000000000E+00   0.00000000000000E+00   0.00000000000000E+00   0.00000000000000E+00   0.00000000000000E+00
      0.00000000000000E+00   0.00000000000000E+00  -2.79648661604855E-16   0.00000000000000E+00   0.00000000000000E+00
      0.00000000000000E+00   0.00000000000000E+00  -3.51549039730581E-09  -4.91606282519812E-28  -3.51549039730581E-09
      1.31272655666239E-16   4.81500000000000E-02   4.81500000000000E-02   0.00000000000000E+00   0.00000000000000E+00
      3.51549039755644E-09   6.08807998021201E-29   3.51549039755644E-09   1.49554076235321E-16
      1.00000000000000E+00
      0.00000000000000E+00   0.00000000000000E+00   0.00000000000000E+00   0.00000000000000E+00   0.00000000000000E+00
      0.00000000000000E+00   0.00000000000000E+00  -2.80325513100072E-16   0.00000000000000E+00   0.00000000000000E+00
      0.00000000000000E+00   0.00000000000000E+00  -3.52634697947028E-09   2.03643915755256E-26  -3.52634697947028E-09
      1.31271606197145E-16   5.00000000000000E-02   5.00000000000000E-02   0.00000000000000E+00   0.00000000000000E+00
      3.52634847911080E-09  -3.47610768398059E-26   3.52634847911080E-09   1.50231899580452E-16
}
