DF-ISE text

Info {
  version   = 1.0
  type      = xyplot
  datasets  = [
    "time"
    "gate OuterVoltage" "gate InnerVoltage" "gate QuasiFermiPotential" "gate DisplacementCurrent" "gate eCurrent"
    "gate hCurrent" "gate TotalCurrent" "gate Charge" "source OuterVoltage" "source InnerVoltage"
    "source QuasiFermiPotential" "source DisplacementCurrent" "source eCurrent" "source hCurrent" "source TotalCurrent"
    "source Charge" "drain OuterVoltage" "drain InnerVoltage" "drain QuasiFermiPotential" "drain DisplacementCurrent"
    "drain eCurrent" "drain hCurrent" "drain TotalCurrent" "drain Charge" ]
  functions = [
    Time
    OuterVoltage InnerVoltage QuasiFermiPotential DisplacementCurrent eCurrent
    hCurrent TotalCurrent Charge OuterVoltage InnerVoltage
    QuasiFermiPotential DisplacementCurrent eCurrent hCurrent TotalCurrent
    Charge OuterVoltage InnerVoltage QuasiFermiPotential DisplacementCurrent
    eCurrent hCurrent TotalCurrent Charge ]
}

Data {
      0.00000000000000E+00
      0.00000000000000E+00   0.00000000000000E+00   0.00000000000000E+00   0.00000000000000E+00   0.00000000000000E+00
      0.00000000000000E+00   0.00000000000000E+00  -1.95207128305636E-16   0.00000000000000E+00   0.00000000000000E+00
      0.00000000000000E+00   0.00000000000000E+00   3.53692418861812E-21  -3.97241355705448E-34   3.53692418861773E-21
      1.11528915494381E-16   0.00000000000000E+00   0.00000000000000E+00   0.00000000000000E+00   0.00000000000000E+00
     -3.87371391468428E-24  -5.79921599119815E-32  -3.87371397267644E-24   1.11149125229435E-16
      0.00000000000000E+00
      0.00000000000000E+00   0.00000000000000E+00   0.00000000000000E+00   0.00000000000000E+00   0.00000000000000E+00
      0.00000000000000E+00   0.00000000000000E+00  -1.95679714808402E-16   0.00000000000000E+00   0.00000000000000E+00
      0.00000000000000E+00   0.00000000000000E+00   6.77255144641264E-21  -2.83624779540829E-34   6.77255144641235E-21
      1.12041620316594E-16   0.00000000000000E+00   0.00000000000000E+00   0.00000000000000E+00   0.00000000000000E+00
     -1.31667126833993E-23  -5.74831407824224E-32  -1.31667127408824E-23   1.11379979963736E-16
      0.00000000000000E+00
      0.00000000000000E+00   0.00000000000000E+00   0.00000000000000E+00   0.00000000000000E+00   0.00000000000000E+00
      0.00000000000000E+00   0.00000000000000E+00  -1.95679714808365E-16   0.00000000000000E+00   0.00000000000000E+00
      0.00000000000000E+00   0.00000000000000E+00   1.07885501710525E-18  -7.10526267578849E-32   1.07885501710518E-18
      1.12041620316600E-16   0.00000000000000E+00   0.00000000000000E+00   0.00000000000000E+00   0.00000000000000E+00
     -1.04235359331256E-20   9.82866327974233E-30  -1.04235359232970E-20   1.11379979963730E-16
      1.00000000000000E-03
      0.00000000000000E+00   0.00000000000000E+00   0.00000000000000E+00   0.00000000000000E+00   0.00000000000000E+00
      0.00000000000000E+00   0.00000000000000E+00  -1.96244046688885E-16   0.00000000000000E+00   0.00000000000000E+00
      0.00000000000000E+00   0.00000000000000E+00  -1.89237852190503E-10  -1.97059148692018E-30  -1.89237852190503E-10
      1.12041619489230E-16   1.50000000000000E-03   1.50000000000000E-03   0.00000000000000E+00   0.00000000000000E+00
      1.89237852043866E-10   4.24567069589431E-29   1.89237852043866E-10   1.11943133850622E-16
      2.73333333333333E-03
      0.00000000000000E+00   0.00000000000000E+00   0.00000000000000E+00   0.00000000000000E+00   0.00000000000000E+00
      0.00000000000000E+00   0.00000000000000E+00  -1.97221376447796E-16   0.00000000000000E+00   0.00000000000000E+00
      0.00000000000000E+00   0.00000000000000E+00  -4.88464762446923E-10   1.28974088791227E-27  -4.88464762446923E-10
      1.12041618177706E-16   4.10000000000000E-03   4.10000000000000E-03   0.00000000000000E+00   0.00000000000000E+00
      4.88466935270385E-10  -2.20433831129852E-27   4.88466935270385E-10   1.12918570081938E-16
      6.20000000000000E-03
      0.00000000000000E+00   0.00000000000000E+00   0.00000000000000E+00   0.00000000000000E+00   0.00000000000000E+00
      0.00000000000000E+00   0.00000000000000E+00  -1.99173014255676E-16   0.00000000000000E+00   0.00000000000000E+00
      0.00000000000000E+00   0.00000000000000E+00  -9.89116643496278E-10   2.76379368849947E-27  -9.89116643496278E-10
      1.12041615972946E-16   9.30000000000000E-03   9.30000000000000E-03   0.00000000000000E+00   0.00000000000000E+00
      9.89116643124299E-10   1.14999736776046E-27   9.89116643124299E-10   1.14866928353461E-16
      1.26711111111111E-02
      0.00000000000000E+00   0.00000000000000E+00   0.00000000000000E+00   0.00000000000000E+00   0.00000000000000E+00
      0.00000000000000E+00   0.00000000000000E+00  -2.02806482745617E-16   0.00000000000000E+00   0.00000000000000E+00
      0.00000000000000E+00   0.00000000000000E+00  -1.64731425529657E-09   3.05341155142079E-31  -1.64731425529657E-09
      1.12041613051945E-16   1.90066666666667E-02   1.90066666666667E-02   0.00000000000000E+00   0.00000000000000E+00
      1.64731425530192E-09  -1.16735988286472E-30   1.64731425530192E-09   1.18495761576417E-16
      2.38877037037037E-02
      0.00000000000000E+00   0.00000000000000E+00   0.00000000000000E+00   0.00000000000000E+00   0.00000000000000E+00
      0.00000000000000E+00   0.00000000000000E+00  -2.09080530821807E-16   0.00000000000000E+00   0.00000000000000E+00
      0.00000000000000E+00   0.00000000000000E+00  -2.23705736129928E-09   9.10856175181405E-30  -2.23705736129928E-09
      1.12041610409873E-16   3.58315555555556E-02   3.58315555555556E-02   0.00000000000000E+00   0.00000000000000E+00
      2.23705736104886E-09   1.22595573147686E-28   2.23705736104886E-09   1.24764995591723E-16
      4.33297975308642E-02
      0.00000000000000E+00   0.00000000000000E+00   0.00000000000000E+00   0.00000000000000E+00   0.00000000000000E+00
      0.00000000000000E+00   0.00000000000000E+00  -2.19905633330247E-16   0.00000000000000E+00   0.00000000000000E+00
      0.00000000000000E+00   0.00000000000000E+00  -2.51059589733719E-09  -1.30622773888193E-28  -2.51059589733719E-09
      1.12041609175376E-16   6.49946962962963E-02   6.49946962962963E-02   0.00000000000000E+00   0.00000000000000E+00
      2.51059589727224E-09   7.97996982207309E-29   2.51059589727224E-09   1.35586934827255E-16
      7.44371476543210E-02
      0.00000000000000E+00   0.00000000000000E+00   0.00000000000000E+00   0.00000000000000E+00   0.00000000000000E+00
      0.00000000000000E+00   0.00000000000000E+00  -2.37153897917419E-16   0.00000000000000E+00   0.00000000000000E+00
      0.00000000000000E+00   0.00000000000000E+00  -2.52688944942144E-09  -3.00475245956354E-30  -2.52688944942144E-09
      1.12041609101217E-16   1.11655721481481E-01   1.11655721481481E-01   0.00000000000000E+00   0.00000000000000E+00
      2.52688944949807E-09   1.28342841598743E-30   2.52688944949807E-09   1.52834433699713E-16
      1.20061261168724E-01
      0.00000000000000E+00   0.00000000000000E+00   0.00000000000000E+00   0.00000000000000E+00   0.00000000000000E+00
      0.00000000000000E+00   0.00000000000000E+00  -2.62387072816352E-16   0.00000000000000E+00   0.00000000000000E+00
      0.00000000000000E+00   0.00000000000000E+00  -2.50427586783296E-09  -1.32284914398196E-28  -2.50427586783296E-09
      1.12041609202845E-16   1.80091891753086E-01   1.80091891753086E-01   0.00000000000000E+00   0.00000000000000E+00
      2.50427586786144E-09  -6.74362507217043E-30   2.50427586786144E-09   1.78067734818619E-16
      1.70061261168724E-01
      0.00000000000000E+00   0.00000000000000E+00   0.00000000000000E+00   0.00000000000000E+00   0.00000000000000E+00
      0.00000000000000E+00   0.00000000000000E+00  -2.90013983894482E-16   0.00000000000000E+00   0.00000000000000E+00
      0.00000000000000E+00   0.00000000000000E+00  -2.53949597626745E-09  -4.60743599948121E-27  -2.53949597626745E-09
      1.12041609042787E-16   2.55091891753086E-01   2.55091891753086E-01   0.00000000000000E+00   0.00000000000000E+00
      2.53949597524481E-09  -2.66020451179139E-29   2.53949597524481E-09   2.05694457705113E-16
      2.20061261168724E-01
      0.00000000000000E+00   0.00000000000000E+00   0.00000000000000E+00   0.00000000000000E+00   0.00000000000000E+00
      0.00000000000000E+00   0.00000000000000E+00  -3.17633698245842E-16   0.00000000000000E+00   0.00000000000000E+00
      0.00000000000000E+00   0.00000000000000E+00  -2.56331279532241E-09  -1.32496784681086E-24  -2.56331279532241E-09
      1.12041608934170E-16   3.30091891753087E-01   3.30091891753087E-01   0.00000000000000E+00   0.00000000000000E+00
      2.56331279509688E-09  -6.16484554550098E-28   2.56331279509688E-09   2.33314049928076E-16
      2.70061261168724E-01
      0.00000000000000E+00   0.00000000000000E+00   0.00000000000000E+00   0.00000000000000E+00   0.00000000000000E+00
      0.00000000000000E+00   0.00000000000000E+00  -3.45251503712613E-16   0.00000000000000E+00   0.00000000000000E+00
      0.00000000000000E+00   0.00000000000000E+00  -2.58096893875733E-09  -6.18930369111064E-27  -2.58096893875733E-09
      1.12041608852675E-16   4.05091891753086E-01   4.05091891753086E-01   0.00000000000000E+00   0.00000000000000E+00
      2.58096892051092E-09  -1.47414119916099E-25   2.58096892051092E-09   2.60931767016736E-16
      3.20061261168724E-01
      0.00000000000000E+00   0.00000000000000E+00   0.00000000000000E+00   0.00000000000000E+00   0.00000000000000E+00
      0.00000000000000E+00   0.00000000000000E+00  -3.72868762209206E-16   0.00000000000000E+00   0.00000000000000E+00
      0.00000000000000E+00   0.00000000000000E+00  -2.59611132890307E-09   2.56548493557044E-27  -2.59611132890307E-09
      1.12041608780692E-16   4.80091891753086E-01   4.80091891753086E-01   0.00000000000000E+00   0.00000000000000E+00
      2.59611132877205E-09  -8.07405024564086E-28   2.59611132877205E-09   2.88548948362083E-16
      3.70061261168724E-01
      0.00000000000000E+00   0.00000000000000E+00   0.00000000000000E+00   0.00000000000000E+00   0.00000000000000E+00
      0.00000000000000E+00   0.00000000000000E+00  -4.00485775806477E-16   0.00000000000000E+00   0.00000000000000E+00
      0.00000000000000E+00   0.00000000000000E+00  -2.60998211035579E-09   3.06425015263479E-27  -2.60998211035579E-09
      1.12041608713924E-16   5.55091891753086E-01   5.55091891753086E-01   0.00000000000000E+00   0.00000000000000E+00
      2.60998210120380E-09  -3.37598553246975E-26   2.60998210120380E-09   3.16165888995824E-16
      4.20061261168724E-01
      0.00000000000000E+00   0.00000000000000E+00   0.00000000000000E+00   0.00000000000000E+00   0.00000000000000E+00
      0.00000000000000E+00   0.00000000000000E+00  -4.28102549286340E-16   0.00000000000000E+00   0.00000000000000E+00
      0.00000000000000E+00   0.00000000000000E+00  -2.62233706625364E-09  -4.02594029777533E-26  -2.62233706625364E-09
      1.12041608651446E-16   6.30091891753086E-01   6.30091891753086E-01   0.00000000000000E+00   0.00000000000000E+00
      2.62233700532212E-09  -5.86775650290079E-25   2.62233700532212E-09   3.43782595890802E-16
      4.70061261168724E-01
      0.00000000000000E+00   0.00000000000000E+00   0.00000000000000E+00   0.00000000000000E+00   0.00000000000000E+00
      0.00000000000000E+00   0.00000000000000E+00  -4.55719128261318E-16   0.00000000000000E+00   0.00000000000000E+00
      0.00000000000000E+00   0.00000000000000E+00  -2.63312929100919E-09  -4.49587231498657E-24  -2.63312929100920E-09
      1.12041608589397E-16   7.05091891753086E-01   7.05091891753086E-01   0.00000000000000E+00   0.00000000000000E+00
      2.63312932408108E-09  -4.32314122593798E-22   2.63312932408064E-09   3.71399114819480E-16
      5.20061261168724E-01
      0.00000000000000E+00   0.00000000000000E+00   0.00000000000000E+00   0.00000000000000E+00   0.00000000000000E+00
      0.00000000000000E+00   0.00000000000000E+00  -4.83335521710235E-16   0.00000000000000E+00   0.00000000000000E+00
      0.00000000000000E+00   0.00000000000000E+00  -2.64285535536481E-09  -8.04870631940455E-25  -2.64285535536481E-09
      1.12041608518356E-16   7.80091891753086E-01   7.80091891753086E-01   0.00000000000000E+00   0.00000000000000E+00
      2.64285535879319E-09  -1.32599099848460E-22   2.64285535879305E-09   3.99015450906049E-16
      5.70061261168724E-01
      0.00000000000000E+00   0.00000000000000E+00   0.00000000000000E+00   0.00000000000000E+00   0.00000000000000E+00
      0.00000000000000E+00   0.00000000000000E+00  -5.10951732568655E-16   0.00000000000000E+00   0.00000000000000E+00
      0.00000000000000E+00   0.00000000000000E+00  -2.65176560318158E-09  -2.21108888007168E-26  -2.65176560318158E-09
      1.12041608423484E-16   8.55091891753087E-01   8.55091891753087E-01   0.00000000000000E+00   0.00000000000000E+00
      2.65176560562925E-09  -1.15733769444819E-23   2.65176560562924E-09   4.26631602821972E-16
      6.20061261168724E-01
      0.00000000000000E+00   0.00000000000000E+00   0.00000000000000E+00   0.00000000000000E+00   0.00000000000000E+00
      0.00000000000000E+00   0.00000000000000E+00  -5.38567765141855E-16   0.00000000000000E+00   0.00000000000000E+00
      0.00000000000000E+00   0.00000000000000E+00  -2.65998585063857E-09   2.56643810683691E-25  -2.65998585063857E-09
      1.12041608279489E-16   9.30091891753087E-01   9.30091891753087E-01   0.00000000000000E+00   0.00000000000000E+00
      2.65998585041796E-09  -3.99086100492281E-25   2.65998585041796E-09   4.54247568727573E-16
      6.70061261168724E-01
      0.00000000000000E+00   0.00000000000000E+00   0.00000000000000E+00   0.00000000000000E+00   0.00000000000000E+00
      0.00000000000000E+00   0.00000000000000E+00  -5.66183626827050E-16   0.00000000000000E+00   0.00000000000000E+00
      0.00000000000000E+00   0.00000000000000E+00  -2.66762020106027E-09   1.72265149570475E-25  -2.66762020106027E-09
      1.12041608047084E-16   1.00509189175309E+00   1.00509189175309E+00   0.00000000000000E+00   0.00000000000000E+00
      2.66762019299523E-09   1.91984649524737E-24   2.66762019299523E-09   4.81863346894096E-16
      7.20061261168724E-01
      0.00000000000000E+00   0.00000000000000E+00   0.00000000000000E+00   0.00000000000000E+00   0.00000000000000E+00
      0.00000000000000E+00   0.00000000000000E+00  -5.93799329918279E-16   0.00000000000000E+00   0.00000000000000E+00
      0.00000000000000E+00   0.00000000000000E+00  -2.67475500279094E-09  -1.36040888180757E-25  -2.67475500279094E-09
      1.12041607664854E-16   1.08009189175309E+00   1.08009189175309E+00   0.00000000000000E+00   0.00000000000000E+00
      2.67475500205018E-09   1.08659807726990E-23   2.67475500205019E-09   5.09478935713755E-16
      7.70061261168725E-01
      0.00000000000000E+00   0.00000000000000E+00   0.00000000000000E+00   0.00000000000000E+00   0.00000000000000E+00
      0.00000000000000E+00   0.00000000000000E+00  -6.21414894440649E-16   0.00000000000000E+00   0.00000000000000E+00
      0.00000000000000E+00   0.00000000000000E+00  -2.68146205289255E-09  -2.24241891127672E-25  -2.68146205289255E-09
      1.12041607036028E-16   1.15509189175309E+00   1.15509189175309E+00   0.00000000000000E+00   0.00000000000000E+00
      2.68146205132370E-09   3.36595797148645E-23   2.68146205132373E-09   5.37094333639255E-16
      8.20061261168725E-01
      0.00000000000000E+00   0.00000000000000E+00   0.00000000000000E+00   0.00000000000000E+00   0.00000000000000E+00
      0.00000000000000E+00   0.00000000000000E+00  -6.49030349574375E-16   0.00000000000000E+00   0.00000000000000E+00
      0.00000000000000E+00   0.00000000000000E+00  -2.68780119042709E-09  -6.19381172984897E-25  -2.68780119042709E-09
      1.12041606021382E-16   1.23009189175309E+00   1.23009189175309E+00   0.00000000000000E+00   0.00000000000000E+00
      2.68780118987945E-09   8.44935159357219E-23   2.68780118987954E-09   5.64709539126301E-16
      8.70061261168725E-01
      0.00000000000000E+00   0.00000000000000E+00   0.00000000000000E+00   0.00000000000000E+00   0.00000000000000E+00
      0.00000000000000E+00   0.00000000000000E+00  -6.76645737256370E-16   0.00000000000000E+00   0.00000000000000E+00
      0.00000000000000E+00   0.00000000000000E+00  -2.69382267628958E-09  -1.32931779766516E-24  -2.69382267628958E-09
      1.12041604422309E-16   1.30509189175309E+00   1.30509189175309E+00   0.00000000000000E+00   0.00000000000000E+00
      2.69382267612565E-09   2.00962342382820E-22   2.69382267612585E-09   5.92324550584393E-16
      9.20061261168725E-01
      0.00000000000000E+00   0.00000000000000E+00   0.00000000000000E+00   0.00000000000000E+00   0.00000000000000E+00
      0.00000000000000E+00   0.00000000000000E+00  -7.04261115826699E-16   0.00000000000000E+00   0.00000000000000E+00
      0.00000000000000E+00   0.00000000000000E+00  -2.69956913288557E-09  -2.44963738858788E-24  -2.69956913288557E-09
      1.12041601963603E-16   1.38009189175309E+00   1.38009189175309E+00   0.00000000000000E+00   0.00000000000000E+00
      2.69956913305391E-09   5.01009904141014E-22   2.69956913305441E-09   6.19939366360886E-16
      9.70061261168725E-01
      0.00000000000000E+00   0.00000000000000E+00   0.00000000000000E+00   0.00000000000000E+00   0.00000000000000E+00
      0.00000000000000E+00   0.00000000000000E+00  -7.31876562805142E-16   0.00000000000000E+00   0.00000000000000E+00
      0.00000000000000E+00   0.00000000000000E+00  -2.70507714407993E-09  -4.58112202943175E-24  -2.70507714407993E-09
      1.12041598280169E-16   1.45509189175309E+00   1.45509189175309E+00   0.00000000000000E+00   0.00000000000000E+00
      2.70507714413540E-09   1.37337327712131E-21   2.70507714413677E-09   6.47553984763218E-16
      1.00000000000000E+00
      0.00000000000000E+00   0.00000000000000E+00   0.00000000000000E+00   0.00000000000000E+00   0.00000000000000E+00
      0.00000000000000E+00   0.00000000000000E+00  -7.48412067970925E-16   0.00000000000000E+00   0.00000000000000E+00
      0.00000000000000E+00   0.00000000000000E+00  -2.70827441292548E-09  -8.32458089432812E-25  -2.70827441292548E-09
      1.12041595302952E-16   1.50000000000000E+00   1.50000000000000E+00   0.00000000000000E+00   0.00000000000000E+00
      2.70827441292715E-09   1.12848772119481E-21   2.70827441292828E-09   6.64088826515245E-16
}
