DF-ISE text

Info {
  version   = 1.0
  type      = xyplot
  datasets  = [
    "time"
    "gate OuterVoltage" "gate InnerVoltage" "gate QuasiFermiPotential" "gate DisplacementCurrent" "gate eCurrent"
    "gate hCurrent" "gate TotalCurrent" "gate Charge" "source OuterVoltage" "source InnerVoltage"
    "source QuasiFermiPotential" "source DisplacementCurrent" "source eCurrent" "source hCurrent" "source TotalCurrent"
    "source Charge" "drain OuterVoltage" "drain InnerVoltage" "drain QuasiFermiPotential" "drain DisplacementCurrent"
    "drain eCurrent" "drain hCurrent" "drain TotalCurrent" "drain Charge" ]
  functions = [
    Time
    OuterVoltage InnerVoltage QuasiFermiPotential DisplacementCurrent eCurrent
    hCurrent TotalCurrent Charge OuterVoltage InnerVoltage
    QuasiFermiPotential DisplacementCurrent eCurrent hCurrent TotalCurrent
    Charge OuterVoltage InnerVoltage QuasiFermiPotential DisplacementCurrent
    eCurrent hCurrent TotalCurrent Charge ]
}

Data {
      0.00000000000000E+00
      0.00000000000000E+00   0.00000000000000E+00   0.00000000000000E+00   0.00000000000000E+00   0.00000000000000E+00
      0.00000000000000E+00   0.00000000000000E+00   1.93465415818108E-16   0.00000000000000E+00   0.00000000000000E+00
      0.00000000000000E+00   0.00000000000000E+00  -2.16927981091237E-18  -2.35031460151987E-18  -4.51959441243224E-18
     -9.71912704551790E-17   0.00000000000000E+00   0.00000000000000E+00   0.00000000000000E+00   0.00000000000000E+00
      5.72085856476110E-19  -1.97804332785180E-18  -1.40595747137569E-18  -9.75547246945298E-17
      0.00000000000000E+00
      0.00000000000000E+00   0.00000000000000E+00   0.00000000000000E+00   0.00000000000000E+00   0.00000000000000E+00
      0.00000000000000E+00   0.00000000000000E+00   1.93465404342357E-16   0.00000000000000E+00   0.00000000000000E+00
      0.00000000000000E+00   0.00000000000000E+00   4.43675192901464E-17  -4.70433493850442E-17  -2.67583009489784E-18
     -9.71912651410720E-17   0.00000000000000E+00   0.00000000000000E+00   0.00000000000000E+00   0.00000000000000E+00
      1.14416212032997E-18  -2.84271770818858E-18  -1.69855558785862E-18  -9.75547185643831E-17
      0.00000000000000E+00
      0.00000000000000E+00   0.00000000000000E+00   0.00000000000000E+00   0.00000000000000E+00   0.00000000000000E+00
      0.00000000000000E+00   0.00000000000000E+00   1.93465404342354E-16   0.00000000000000E+00   0.00000000000000E+00
      0.00000000000000E+00   0.00000000000000E+00   4.92997491655150E-17  -4.93679818117358E-17  -6.82326462207544E-20
     -9.71912651410707E-17   0.00000000000000E+00   0.00000000000000E+00   0.00000000000000E+00   0.00000000000000E+00
      1.14416212044557E-18  -1.17097393492805E-18  -2.68118144824781E-20  -9.75547185643813E-17
      1.00000000000000E-03
      0.00000000000000E+00   0.00000000000000E+00   0.00000000000000E+00   0.00000000000000E+00   0.00000000000000E+00
      0.00000000000000E+00   0.00000000000000E+00   1.93484652015036E-16   0.00000000000000E+00   0.00000000000000E+00
      0.00000000000000E+00   0.00000000000000E+00   1.87050222112202E-10  -4.22289798371539E-15   1.87045999214218E-10
     -9.71912469674719E-17  -5.00000000000000E-05  -5.00000000000000E-05   0.00000000000000E+00   0.00000000000000E+00
     -1.86940805229826E-10   1.13011977842968E-11  -1.75639607445529E-10  -9.75739246779966E-17
      3.00000000000000E-03
      0.00000000000000E+00   0.00000000000000E+00   0.00000000000000E+00   0.00000000000000E+00   0.00000000000000E+00
      0.00000000000000E+00   0.00000000000000E+00   1.93523145696601E-16   0.00000000000000E+00   0.00000000000000E+00
      0.00000000000000E+00   0.00000000000000E+00   5.58957674917486E-10   7.08090468689813E-18   5.58957681998390E-10
     -9.71912106230478E-17  -1.50000000000000E-04  -1.50000000000000E-04   0.00000000000000E+00   0.00000000000000E+00
     -5.58957647767346E-10   5.37222770881544E-18  -5.58957642395118E-10  -9.76123355911066E-17
      7.00000000000000E-03
      0.00000000000000E+00   0.00000000000000E+00   0.00000000000000E+00   0.00000000000000E+00   0.00000000000000E+00
      0.00000000000000E+00   0.00000000000000E+00   1.93600128996239E-16   0.00000000000000E+00   0.00000000000000E+00
      0.00000000000000E+00   0.00000000000000E+00   1.29672690583126E-09  -6.03684087585767E-17   1.29672684546285E-09
     -9.71911379397397E-17  -3.50000000000000E-04  -3.50000000000000E-04   0.00000000000000E+00   0.00000000000000E+00
     -1.29672691910503E-09   9.26293551291851E-17  -1.29672682647567E-09  -9.76891542066738E-17
      1.50000000000000E-02
      0.00000000000000E+00   0.00000000000000E+00   0.00000000000000E+00   0.00000000000000E+00   0.00000000000000E+00
      0.00000000000000E+00   0.00000000000000E+00   1.93754077891934E-16   0.00000000000000E+00   0.00000000000000E+00
      0.00000000000000E+00   0.00000000000000E+00   2.74457153324358E-09  -3.95419831705427E-17   2.74457149370159E-09
     -9.71909925959326E-17  -7.50000000000000E-04  -7.50000000000000E-04   0.00000000000000E+00   0.00000000000000E+00
     -2.74457151714718E-09  -1.77026609264929E-17  -2.74457153484984E-09  -9.78427774384223E-17
      3.10000000000000E-02
      0.00000000000000E+00   0.00000000000000E+00   0.00000000000000E+00   0.00000000000000E+00   0.00000000000000E+00
      0.00000000000000E+00   0.00000000000000E+00   1.94061905098228E-16   0.00000000000000E+00   0.00000000000000E+00
      0.00000000000000E+00   0.00000000000000E+00   5.52425693147694E-09  -2.91494245301147E-16   5.52425663998270E-09
     -9.71907019925321E-17  -1.55000000000000E-03  -1.55000000000000E-03   0.00000000000000E+00   0.00000000000000E+00
     -5.52425718349497E-09  -1.43892687280072E-16  -5.52425732738766E-09  -9.81499679821952E-17
      6.30000000000000E-02
      0.00000000000000E+00   0.00000000000000E+00   0.00000000000000E+00   0.00000000000000E+00   0.00000000000000E+00
      0.00000000000000E+00   0.00000000000000E+00   1.94677278959547E-16   0.00000000000000E+00   0.00000000000000E+00
      0.00000000000000E+00   0.00000000000000E+00   1.06128339456583E-08  -5.63395596274398E-15   1.06128283117023E-08
     -9.71901211112665E-17  -3.15000000000000E-03  -3.15000000000000E-03   0.00000000000000E+00   0.00000000000000E+00
     -1.06128346698833E-08  -4.61076081024709E-15  -1.06128392806441E-08  -9.87641259638966E-17
      1.13000000000000E-01
      0.00000000000000E+00   0.00000000000000E+00   0.00000000000000E+00   0.00000000000000E+00   0.00000000000000E+00
      0.00000000000000E+00   0.00000000000000E+00   1.95638059869944E-16   0.00000000000000E+00   0.00000000000000E+00
      0.00000000000000E+00   0.00000000000000E+00   1.73627682465093E-08  -4.47423084261277E-14   1.73627235042009E-08
     -9.71892144105311E-17  -5.65000000000000E-03  -5.65000000000000E-03   0.00000000000000E+00   0.00000000000000E+00
     -1.73627702331162E-08  -2.56346456334451E-14  -1.73627958677618E-08  -9.97231548465588E-17
      1.63000000000000E-01
      0.00000000000000E+00   0.00000000000000E+00   0.00000000000000E+00   0.00000000000000E+00   0.00000000000000E+00
      0.00000000000000E+00   0.00000000000000E+00   1.96597950395987E-16   0.00000000000000E+00   0.00000000000000E+00
      0.00000000000000E+00   0.00000000000000E+00   2.28015537202513E-08  -5.70425396486105E-14   2.28014966777117E-08
     -9.71883090002246E-17  -8.15000000000000E-03  -8.15000000000000E-03   0.00000000000000E+00   0.00000000000000E+00
     -2.28015552881139E-08  -3.48051941956931E-14  -2.28015900933081E-08  -1.00681464756270E-16
      2.13000000000000E-01
      0.00000000000000E+00   0.00000000000000E+00   0.00000000000000E+00   0.00000000000000E+00   0.00000000000000E+00
      0.00000000000000E+00   0.00000000000000E+00   1.97556964844828E-16   0.00000000000000E+00   0.00000000000000E+00
      0.00000000000000E+00   0.00000000000000E+00   2.71245853755100E-08  -4.40933047282144E-14   2.71245412822053E-08
     -9.71874050747702E-17  -1.06500000000000E-02  -1.06500000000000E-02   0.00000000000000E+00   0.00000000000000E+00
     -2.71245873996969E-08  -3.34545368635723E-14  -2.71246208542337E-08  -1.01639060441897E-16
      2.63000000000000E-01
      0.00000000000000E+00   0.00000000000000E+00   0.00000000000000E+00   0.00000000000000E+00   0.00000000000000E+00
      0.00000000000000E+00   0.00000000000000E+00   1.98515117134250E-16   0.00000000000000E+00   0.00000000000000E+00
      0.00000000000000E+00   0.00000000000000E+00   3.05198945936752E-08  -2.75833731257496E-14   3.05198670103021E-08
     -9.71865028015569E-17  -1.31500000000000E-02  -1.31500000000000E-02   0.00000000000000E+00   0.00000000000000E+00
     -3.05199088164851E-08  -2.71959168308563E-14  -3.05199360124020E-08  -1.02595946716195E-16
      3.13000000000000E-01
      0.00000000000000E+00   0.00000000000000E+00   0.00000000000000E+00   0.00000000000000E+00   0.00000000000000E+00
      0.00000000000000E+00   0.00000000000000E+00   1.99472420851243E-16   0.00000000000000E+00   0.00000000000000E+00
      0.00000000000000E+00   0.00000000000000E+00   3.31560174080535E-08  -1.59531176647410E-14   3.31560014549358E-08
     -9.71856023057515E-17  -1.56500000000000E-02  -1.56500000000000E-02   0.00000000000000E+00   0.00000000000000E+00
     -3.31560444526430E-08  -1.82440756673936E-14  -3.31560626967187E-08  -1.03552128457313E-16
      3.63000000000000E-01
      0.00000000000000E+00   0.00000000000000E+00   0.00000000000000E+00   0.00000000000000E+00   0.00000000000000E+00
      0.00000000000000E+00   0.00000000000000E+00   2.00428889275431E-16   0.00000000000000E+00   0.00000000000000E+00
      0.00000000000000E+00   0.00000000000000E+00   3.51779896509710E-08  -3.49249611494743E-17   3.51779896160460E-08
     -9.71847036690317E-17  -1.81500000000000E-02  -1.81500000000000E-02   0.00000000000000E+00   0.00000000000000E+00
     -3.51779895242006E-08  -9.21476673074953E-17  -3.51779896163483E-08  -1.04507610602514E-16
      4.13000000000000E-01
      0.00000000000000E+00   0.00000000000000E+00   0.00000000000000E+00   0.00000000000000E+00   0.00000000000000E+00
      0.00000000000000E+00   0.00000000000000E+00   2.01384535421110E-16   0.00000000000000E+00   0.00000000000000E+00
      0.00000000000000E+00   0.00000000000000E+00   3.67141030616917E-08   5.47381951566847E-17   3.67141031164299E-08
     -9.71838069458441E-17  -2.06500000000000E-02  -2.06500000000000E-02   0.00000000000000E+00   0.00000000000000E+00
     -3.67141031506304E-08   3.46792916122476E-17  -3.67141031159511E-08  -1.05462398161181E-16
      4.63000000000000E-01
      0.00000000000000E+00   0.00000000000000E+00   0.00000000000000E+00   0.00000000000000E+00   0.00000000000000E+00
      0.00000000000000E+00   0.00000000000000E+00   2.02339372045804E-16   0.00000000000000E+00   0.00000000000000E+00
      0.00000000000000E+00   0.00000000000000E+00   3.78681550987409E-08   2.16610276573039E-17   3.78681551204020E-08
     -9.71829121504450E-17  -2.31500000000000E-02  -2.31500000000000E-02   0.00000000000000E+00   0.00000000000000E+00
     -3.78681550675743E-08  -5.12251943839083E-17  -3.78681551187995E-08  -1.06416496169184E-16
      5.13000000000000E-01
      0.00000000000000E+00   0.00000000000000E+00   0.00000000000000E+00   0.00000000000000E+00   0.00000000000000E+00
      0.00000000000000E+00   0.00000000000000E+00   2.03293411674317E-16   0.00000000000000E+00   0.00000000000000E+00
      0.00000000000000E+00   0.00000000000000E+00   3.87278605133945E-08   4.04806218185737E-18   3.87278605174426E-08
     -9.71820192754279E-17  -2.56500000000000E-02  -2.56500000000000E-02   0.00000000000000E+00   0.00000000000000E+00
     -3.87278603226097E-08  -1.93221189787740E-16  -3.87278605158309E-08  -1.07369909702061E-16
      5.63000000000000E-01
      0.00000000000000E+00   0.00000000000000E+00   0.00000000000000E+00   0.00000000000000E+00   0.00000000000000E+00
      0.00000000000000E+00   0.00000000000000E+00   2.04246666613269E-16   0.00000000000000E+00   0.00000000000000E+00
      0.00000000000000E+00   0.00000000000000E+00   3.93653446473650E-08   1.73100392913436E-17   3.93653446646750E-08
     -9.71811282939954E-17  -2.81500000000000E-02  -2.81500000000000E-02   0.00000000000000E+00   0.00000000000000E+00
     -3.93653448603192E-08   1.95933530838054E-16  -3.93653446643857E-08  -1.08322643858118E-16
      6.13000000000000E-01
      0.00000000000000E+00   0.00000000000000E+00   0.00000000000000E+00   0.00000000000000E+00   0.00000000000000E+00
      0.00000000000000E+00   0.00000000000000E+00   2.05199148955212E-16   0.00000000000000E+00   0.00000000000000E+00
      0.00000000000000E+00   0.00000000000000E+00   3.98390298281659E-08   4.92038226935219E-17   3.98390298773697E-08
     -9.71802391650435E-17  -3.06500000000000E-02  -3.06500000000000E-02   0.00000000000000E+00   0.00000000000000E+00
     -3.98390296827044E-08  -1.94798264317585E-16  -3.98390298775027E-08  -1.09274703748329E-16
      6.63000000000000E-01
      0.00000000000000E+00   0.00000000000000E+00   0.00000000000000E+00   0.00000000000000E+00   0.00000000000000E+00
      0.00000000000000E+00   0.00000000000000E+00   2.06150870568845E-16   0.00000000000000E+00   0.00000000000000E+00
      0.00000000000000E+00   0.00000000000000E+00   4.01953243976997E-08  -2.28249105459520E-17   4.01953243748748E-08
     -9.71793518378108E-17  -3.31500000000000E-02  -3.31500000000000E-02   0.00000000000000E+00   0.00000000000000E+00
     -4.01953244584337E-08   8.38332233543043E-17  -4.01953243746005E-08  -1.10226094487094E-16
      7.13000000000000E-01
      0.00000000000000E+00   0.00000000000000E+00   0.00000000000000E+00   0.00000000000000E+00   0.00000000000000E+00
      0.00000000000000E+00   0.00000000000000E+00   2.07101843073456E-16   0.00000000000000E+00   0.00000000000000E+00
      0.00000000000000E+00   0.00000000000000E+00   4.04701711525108E-08   1.21285558357173E-16   4.04701712737964E-08
     -9.71784662560471E-17  -3.56500000000000E-02  -3.56500000000000E-02   0.00000000000000E+00   0.00000000000000E+00
     -4.04701712195877E-08  -5.42557115609300E-17  -4.04701712738435E-08  -1.11176821184162E-16
      7.63000000000000E-01
      0.00000000000000E+00   0.00000000000000E+00   0.00000000000000E+00   0.00000000000000E+00   0.00000000000000E+00
      0.00000000000000E+00   0.00000000000000E+00   2.08052077799520E-16   0.00000000000000E+00   0.00000000000000E+00
      0.00000000000000E+00   0.00000000000000E+00   4.06905355516722E-08   1.49682235932641E-17   4.06905355666404E-08
     -9.71775823616363E-17  -3.81500000000000E-02  -3.81500000000000E-02   0.00000000000000E+00   0.00000000000000E+00
     -4.06905347279838E-08  -8.37741391040172E-16  -4.06905355657252E-08  -1.12126888937917E-16
      8.13000000000000E-01
      0.00000000000000E+00   0.00000000000000E+00   0.00000000000000E+00   0.00000000000000E+00   0.00000000000000E+00
      0.00000000000000E+00   0.00000000000000E+00   2.09001585741731E-16   0.00000000000000E+00   0.00000000000000E+00
      0.00000000000000E+00   0.00000000000000E+00   4.08758833624762E-08  -3.89483736790764E-17   4.08758833235278E-08
     -9.71767000975400E-17  -4.06500000000000E-02  -4.06500000000000E-02   0.00000000000000E+00   0.00000000000000E+00
     -4.08758828334156E-08  -4.88490498206242E-16  -4.08758833219061E-08  -1.13076302830186E-16
      8.63000000000000E-01
      0.00000000000000E+00   0.00000000000000E+00   0.00000000000000E+00   0.00000000000000E+00   0.00000000000000E+00
      0.00000000000000E+00   0.00000000000000E+00   2.09950377513972E-16   0.00000000000000E+00   0.00000000000000E+00
      0.00000000000000E+00   0.00000000000000E+00   4.10396554641456E-08  -1.41156185035245E-16   4.10396553229894E-08
     -9.71758194099411E-17  -4.31500000000000E-02  -4.31500000000000E-02   0.00000000000000E+00   0.00000000000000E+00
     -4.10396535803682E-08  -1.74042907919830E-15  -4.10396553207973E-08  -1.14025067922483E-16
      9.13000000000000E-01
      0.00000000000000E+00   0.00000000000000E+00   0.00000000000000E+00   0.00000000000000E+00   0.00000000000000E+00
      0.00000000000000E+00   0.00000000000000E+00   2.10898463315620E-16   0.00000000000000E+00   0.00000000000000E+00
      0.00000000000000E+00   0.00000000000000E+00   4.11906835002652E-08  -2.61329186639913E-17   4.11906834741323E-08
     -9.71749402495468E-17  -4.56500000000000E-02  -4.56500000000000E-02   0.00000000000000E+00   0.00000000000000E+00
     -4.11906834443492E-08  -2.96447719883847E-17  -4.11906834739940E-08  -1.14973189253360E-16
      9.63000000000000E-01
      0.00000000000000E+00   0.00000000000000E+00   0.00000000000000E+00   0.00000000000000E+00   0.00000000000000E+00
      0.00000000000000E+00   0.00000000000000E+00   2.11845852915488E-16   0.00000000000000E+00   0.00000000000000E+00
      0.00000000000000E+00   0.00000000000000E+00   4.13344697105697E-08  -4.71025901672097E-17   4.13344696634671E-08
     -9.71740625720960E-17  -4.81500000000000E-02  -4.81500000000000E-02   0.00000000000000E+00   0.00000000000000E+00
     -4.13344696307106E-08  -3.15987818741815E-17  -4.13344696623094E-08  -1.15920671836515E-16
      1.00000000000000E+00
      0.00000000000000E+00   0.00000000000000E+00   0.00000000000000E+00   0.00000000000000E+00   0.00000000000000E+00
      0.00000000000000E+00   0.00000000000000E+00   2.12546478563091E-16   0.00000000000000E+00   0.00000000000000E+00
      0.00000000000000E+00   0.00000000000000E+00   4.14382249210888E-08  -7.52086789464320E-15   4.14382174002209E-08
     -9.71734140216599E-17  -5.00000000000000E-02  -5.00000000000000E-02   0.00000000000000E+00   0.00000000000000E+00
     -4.14382328978592E-08   9.88907318259788E-15  -4.14382230087860E-08  -1.16621400652349E-16
}
