DF-ISE text

Info {
  version   = 1.0
  type      = xyplot
  datasets  = [
    "time"
    "gate OuterVoltage" "gate InnerVoltage" "gate QuasiFermiPotential" "gate DisplacementCurrent" "gate eCurrent"
    "gate hCurrent" "gate TotalCurrent" "gate Charge" "source OuterVoltage" "source InnerVoltage"
    "source QuasiFermiPotential" "source DisplacementCurrent" "source eCurrent" "source hCurrent" "source TotalCurrent"
    "source Charge" "drain OuterVoltage" "drain InnerVoltage" "drain QuasiFermiPotential" "drain DisplacementCurrent"
    "drain eCurrent" "drain hCurrent" "drain TotalCurrent" "drain Charge" ]
  functions = [
    Time
    OuterVoltage InnerVoltage QuasiFermiPotential DisplacementCurrent eCurrent
    hCurrent TotalCurrent Charge OuterVoltage InnerVoltage
    QuasiFermiPotential DisplacementCurrent eCurrent hCurrent TotalCurrent
    Charge OuterVoltage InnerVoltage QuasiFermiPotential DisplacementCurrent
    eCurrent hCurrent TotalCurrent Charge ]
}

Data {
      0.00000000000000E+00
      0.00000000000000E+00   0.00000000000000E+00   0.00000000000000E+00   0.00000000000000E+00   0.00000000000000E+00
      0.00000000000000E+00   0.00000000000000E+00  -2.21652345404271E-16   0.00000000000000E+00   0.00000000000000E+00
      0.00000000000000E+00   0.00000000000000E+00   6.24794680994790E-20  -1.66838185473424E-31   6.24794680993121E-20
      1.11222881166646E-16   0.00000000000000E+00   0.00000000000000E+00   0.00000000000000E+00   0.00000000000000E+00
     -7.65887281303497E-22  -1.45756766893609E-31  -7.65887281449254E-22   1.11642192348622E-16
      0.00000000000000E+00
      0.00000000000000E+00   0.00000000000000E+00   0.00000000000000E+00   0.00000000000000E+00   0.00000000000000E+00
      0.00000000000000E+00   0.00000000000000E+00  -2.40622464494666E-16   0.00000000000000E+00   0.00000000000000E+00
      0.00000000000000E+00   0.00000000000000E+00   5.65616379952058E-19  -1.36701885917169E-31   5.65616379951922E-19
      1.21145866653422E-16   0.00000000000000E+00   0.00000000000000E+00   0.00000000000000E+00   0.00000000000000E+00
      2.85675835500044E-20  -1.17203597998925E-31   2.85675835498872E-20   1.20974266460657E-16
      0.00000000000000E+00
      0.00000000000000E+00   0.00000000000000E+00   0.00000000000000E+00   0.00000000000000E+00   0.00000000000000E+00
      0.00000000000000E+00   0.00000000000000E+00  -2.40622463906480E-16   0.00000000000000E+00   0.00000000000000E+00
      0.00000000000000E+00   0.00000000000000E+00   1.61508540150405E-17  -2.91849350269112E-30   1.61508540150376E-17
      1.21145866376216E-16   0.00000000000000E+00   0.00000000000000E+00   0.00000000000000E+00   0.00000000000000E+00
      4.23979979413658E-18  -6.49820607454778E-30   4.23979979413008E-18   1.20974266299135E-16
      1.00000000000000E-03
      0.00000000000000E+00   0.00000000000000E+00   0.00000000000000E+00   0.00000000000000E+00   0.00000000000000E+00
      0.00000000000000E+00   0.00000000000000E+00  -2.40904282818405E-16   0.00000000000000E+00   0.00000000000000E+00
      0.00000000000000E+00   0.00000000000000E+00  -1.14962117093306E-09  -3.60754691992733E-27  -1.14962117093306E-09
      1.21145602846871E-16   7.50000000000000E-04   7.50000000000000E-04   0.00000000000000E+00   0.00000000000000E+00
      1.16662375763914E-09   2.08249871526309E-26   1.16662375763914E-09   1.21255242158041E-16
      2.86666666666667E-03
      0.00000000000000E+00   0.00000000000000E+00   0.00000000000000E+00   0.00000000000000E+00   0.00000000000000E+00
      0.00000000000000E+00   0.00000000000000E+00  -2.41430193816233E-16   0.00000000000000E+00   0.00000000000000E+00
      0.00000000000000E+00   0.00000000000000E+00  -3.00951116104126E-09  -9.96279392240613E-27  -3.00951116104126E-09
      1.21145110743684E-16   2.15000000000000E-03   2.15000000000000E-03   0.00000000000000E+00   0.00000000000000E+00
      3.00953526003434E-09  -2.61389968676923E-26   3.00953526003434E-09   1.21779611139181E-16
      6.60000000000000E-03
      0.00000000000000E+00   0.00000000000000E+00   0.00000000000000E+00   0.00000000000000E+00   0.00000000000000E+00
      0.00000000000000E+00   0.00000000000000E+00  -2.42481430038699E-16   0.00000000000000E+00   0.00000000000000E+00
      0.00000000000000E+00   0.00000000000000E+00  -5.83648334324274E-09  -2.09733038707480E-26  -5.83648334324274E-09
      1.21144126280009E-16   4.95000000000000E-03   4.95000000000000E-03   0.00000000000000E+00   0.00000000000000E+00
      5.83687647914905E-09  -5.95426142730343E-26   5.83687647914905E-09   1.22827883725222E-16
      1.40666666666667E-02
      0.00000000000000E+00   0.00000000000000E+00   0.00000000000000E+00   0.00000000000000E+00   0.00000000000000E+00
      0.00000000000000E+00   0.00000000000000E+00  -2.44581591557627E-16   0.00000000000000E+00   0.00000000000000E+00
      0.00000000000000E+00   0.00000000000000E+00  -9.12558440021849E-09  -1.34137946323723E-31  -9.12558440021849E-09
      1.21142158675612E-16   1.05500000000000E-02   1.05500000000000E-02   0.00000000000000E+00   0.00000000000000E+00
      9.12558440006229E-09   1.57642416860651E-31   9.12558440006229E-09   1.24922574379268E-16
      2.60133333333333E-02
      0.00000000000000E+00   0.00000000000000E+00   0.00000000000000E+00   0.00000000000000E+00   0.00000000000000E+00
      0.00000000000000E+00   0.00000000000000E+00  -2.47935593430308E-16   0.00000000000000E+00   0.00000000000000E+00
      0.00000000000000E+00   0.00000000000000E+00  -1.11008993147607E-08   4.84975036323778E-26  -1.11008993147607E-08
      1.21139020164481E-16   1.95100000000000E-02   1.95100000000000E-02   0.00000000000000E+00   0.00000000000000E+00
      1.11008974085202E-08   8.36044286166103E-26   1.11008974085202E-08   1.28268977375673E-16
      4.83137777777778E-02
      0.00000000000000E+00   0.00000000000000E+00   0.00000000000000E+00   0.00000000000000E+00   0.00000000000000E+00
      0.00000000000000E+00   0.00000000000000E+00  -2.54176639013694E-16   0.00000000000000E+00   0.00000000000000E+00
      0.00000000000000E+00   0.00000000000000E+00  -1.14494750745460E-08  -2.72781259514988E-31  -1.14494750745460E-08
      1.21133204307618E-16   3.62353333333333E-02   3.62353333333333E-02   0.00000000000000E+00   0.00000000000000E+00
      1.14494750744583E-08   4.66583395478687E-31   1.14494750744583E-08   1.34499073978661E-16
      8.10210962962963E-02
      0.00000000000000E+00   0.00000000000000E+00   0.00000000000000E+00   0.00000000000000E+00   0.00000000000000E+00
      0.00000000000000E+00   0.00000000000000E+00  -2.63286462520484E-16   0.00000000000000E+00   0.00000000000000E+00
      0.00000000000000E+00   0.00000000000000E+00  -1.12581465362606E-08  -6.63204003905313E-26  -1.12581465362606E-08
      1.21124776080999E-16   6.07658222222222E-02   6.07658222222222E-02   0.00000000000000E+00   0.00000000000000E+00
      1.12581464067570E-08  -5.64083193779634E-26   1.12581464067570E-08   1.43598756060030E-16
      1.06021096296296E-01
      0.00000000000000E+00   0.00000000000000E+00   0.00000000000000E+00   0.00000000000000E+00   0.00000000000000E+00
      0.00000000000000E+00   0.00000000000000E+00  -2.70216888054334E-16   0.00000000000000E+00   0.00000000000000E+00
      0.00000000000000E+00   0.00000000000000E+00  -1.14573518901271E-08  -2.93319792673718E-28  -1.14573518901271E-08
      1.21118408303659E-16   7.95158222222222E-02   7.95158222222222E-02   0.00000000000000E+00   0.00000000000000E+00
      1.14573518897583E-08  -3.32396806386788E-28   1.14573518897583E-08   1.50524942838812E-16
      1.39354429629630E-01
      0.00000000000000E+00   0.00000000000000E+00   0.00000000000000E+00   0.00000000000000E+00   0.00000000000000E+00
      0.00000000000000E+00   0.00000000000000E+00  -2.79416367579060E-16   0.00000000000000E+00   0.00000000000000E+00
      0.00000000000000E+00   0.00000000000000E+00  -1.19142811317676E-08   1.12743623158224E-25  -1.19142811317676E-08
      1.21110008251066E-16   1.04515822222222E-01   1.04515822222222E-01   0.00000000000000E+00   0.00000000000000E+00
      1.19142818323414E-08   4.68279775727317E-26   1.19142818323414E-08   1.59722176228359E-16
      1.59354429629630E-01
      0.00000000000000E+00   0.00000000000000E+00   0.00000000000000E+00   0.00000000000000E+00   0.00000000000000E+00
      0.00000000000000E+00   0.00000000000000E+00  -2.84914729099255E-16   0.00000000000000E+00   0.00000000000000E+00
      0.00000000000000E+00   0.00000000000000E+00  -1.22067374278837E-08   1.79490794282004E-25  -1.22067374278837E-08
      1.21105014139514E-16   1.19515822222222E-01   1.19515822222222E-01   0.00000000000000E+00   0.00000000000000E+00
      1.22067383488328E-08   5.80363542878931E-26   1.22067383488328E-08   1.65220609291902E-16
      1.91354429629630E-01
      0.00000000000000E+00   0.00000000000000E+00   0.00000000000000E+00   0.00000000000000E+00   0.00000000000000E+00
      0.00000000000000E+00   0.00000000000000E+00  -2.93680640956399E-16   0.00000000000000E+00   0.00000000000000E+00
      0.00000000000000E+00   0.00000000000000E+00  -1.26552954196346E-08   2.10278284503066E-25  -1.26552954196346E-08
      1.21097090138484E-16   1.43515822222222E-01   1.43515822222222E-01   0.00000000000000E+00   0.00000000000000E+00
      1.26552956279537E-08   4.58426197468010E-26   1.26552956279537E-08   1.73988288446032E-16
      2.12687762962963E-01
      0.00000000000000E+00   0.00000000000000E+00   0.00000000000000E+00   0.00000000000000E+00   0.00000000000000E+00
      0.00000000000000E+00   0.00000000000000E+00  -2.99504005684568E-16   0.00000000000000E+00   0.00000000000000E+00
      0.00000000000000E+00   0.00000000000000E+00  -1.29321342711815E-08   1.08151124504965E-29  -1.29321342711815E-08
      1.21091850451275E-16   1.59515822222222E-01   1.59515822222222E-01   0.00000000000000E+00   0.00000000000000E+00
      1.29321342708964E-08   4.35649967866024E-30   1.29321342708964E-08   1.79813714913826E-16
      2.41132207407407E-01
      0.00000000000000E+00   0.00000000000000E+00   0.00000000000000E+00   0.00000000000000E+00   0.00000000000000E+00
      0.00000000000000E+00   0.00000000000000E+00  -3.07244059023589E-16   0.00000000000000E+00   0.00000000000000E+00
      0.00000000000000E+00   0.00000000000000E+00  -1.32781174301632E-08  -3.45552268388734E-26  -1.32781174301632E-08
      1.21084914594017E-16   1.80849155555556E-01   1.80849155555556E-01   0.00000000000000E+00   0.00000000000000E+00
      1.32781174301452E-08   2.85978694179715E-28   1.32781174301452E-08   1.87557353520905E-16
      2.79058133333333E-01
      0.00000000000000E+00   0.00000000000000E+00   0.00000000000000E+00   0.00000000000000E+00   0.00000000000000E+00
      0.00000000000000E+00   0.00000000000000E+00  -3.17522685849426E-16   0.00000000000000E+00   0.00000000000000E+00
      0.00000000000000E+00   0.00000000000000E+00  -1.37083793684549E-08  -7.05321149584261E-30  -1.37083793684549E-08
      1.21075751203226E-16   2.09293600000000E-01   2.09293600000000E-01   0.00000000000000E+00   0.00000000000000E+00
      1.37083793683568E-08   7.96804199559982E-30   1.37083793683568E-08   1.97841877050219E-16
      3.01813688888889E-01
      0.00000000000000E+00   0.00000000000000E+00   0.00000000000000E+00   0.00000000000000E+00   0.00000000000000E+00
      0.00000000000000E+00   0.00000000000000E+00  -3.23668132137562E-16   0.00000000000000E+00   0.00000000000000E+00
      0.00000000000000E+00   0.00000000000000E+00  -1.39592906210825E-08  -1.67868898030517E-25  -1.39592906210825E-08
      1.21070296913006E-16   2.26360266666667E-01   2.26360266666667E-01   0.00000000000000E+00   0.00000000000000E+00
      1.39592907159729E-08  -4.76514249501990E-27   1.39592907159729E-08   2.03991315714580E-16
      3.38222577777778E-01
      0.00000000000000E+00   0.00000000000000E+00   0.00000000000000E+00   0.00000000000000E+00   0.00000000000000E+00
      0.00000000000000E+00   0.00000000000000E+00  -3.33468475479695E-16   0.00000000000000E+00   0.00000000000000E+00
      0.00000000000000E+00   0.00000000000000E+00  -1.43515440093616E-08  -2.90816516617554E-28  -1.43515440093616E-08
      1.21061634426915E-16   2.53666933333333E-01   2.53666933333333E-01   0.00000000000000E+00   0.00000000000000E+00
      1.43515440093796E-08   1.71874631255353E-28   1.43515440093796E-08   2.13798563380252E-16
      3.81913244444445E-01
      0.00000000000000E+00   0.00000000000000E+00   0.00000000000000E+00   0.00000000000000E+00   0.00000000000000E+00
      0.00000000000000E+00   0.00000000000000E+00  -3.45178652111478E-16   0.00000000000000E+00   0.00000000000000E+00
      0.00000000000000E+00   0.00000000000000E+00  -1.48261879523479E-08  -1.79312324879155E-28  -1.48261879523479E-08
      1.21051338168457E-16   2.86434933333334E-01   2.86434933333334E-01   0.00000000000000E+00   0.00000000000000E+00
      1.48261879523601E-08   2.12933083142039E-28   1.48261879523601E-08   2.25517620372972E-16
      4.25603911111111E-01
      0.00000000000000E+00   0.00000000000000E+00   0.00000000000000E+00   0.00000000000000E+00   0.00000000000000E+00
      0.00000000000000E+00   0.00000000000000E+00  -3.56836789340743E-16   0.00000000000000E+00   0.00000000000000E+00
      0.00000000000000E+00   0.00000000000000E+00  -1.53092629190397E-08   1.41296057532767E-24  -1.53092629190397E-08
      1.21041142776666E-16   3.19202933333334E-01   3.19202933333334E-01   0.00000000000000E+00   0.00000000000000E+00
      1.53092788760085E-08   2.01614188922578E-26   1.53092788760085E-08   2.37185061288193E-16
      4.75603911111111E-01
      0.00000000000000E+00   0.00000000000000E+00   0.00000000000000E+00   0.00000000000000E+00   0.00000000000000E+00
      0.00000000000000E+00   0.00000000000000E+00  -3.70117934513348E-16   0.00000000000000E+00   0.00000000000000E+00
      0.00000000000000E+00   0.00000000000000E+00  -1.58690909658413E-08  -2.68043013733257E-24  -1.58690909658413E-08
      1.21029590720131E-16   3.56702933333334E-01   3.56702933333334E-01   0.00000000000000E+00   0.00000000000000E+00
      1.58690867824891E-08  -6.05125257705261E-24   1.58690867824891E-08   2.50477166105559E-16
      5.00603911111111E-01
      0.00000000000000E+00   0.00000000000000E+00   0.00000000000000E+00   0.00000000000000E+00   0.00000000000000E+00
      0.00000000000000E+00   0.00000000000000E+00  -3.76735297217154E-16   0.00000000000000E+00   0.00000000000000E+00
      0.00000000000000E+00   0.00000000000000E+00  -1.61525911125236E-08  -2.90289178132309E-24  -1.61525911125236E-08
      1.21023858514886E-16   3.75452933333334E-01   3.75452933333334E-01   0.00000000000000E+00   0.00000000000000E+00
      1.61525776772353E-08  -1.27431045325486E-23   1.61525776772353E-08   2.57100090170949E-16
      5.37270577777778E-01
      0.00000000000000E+00   0.00000000000000E+00   0.00000000000000E+00   0.00000000000000E+00   0.00000000000000E+00
      0.00000000000000E+00   0.00000000000000E+00  -3.86413838299265E-16   0.00000000000000E+00   0.00000000000000E+00
      0.00000000000000E+00   0.00000000000000E+00  -1.65665769491710E-08   2.08114838134510E-24  -1.65665769491710E-08
      1.21015501546082E-16   4.02952933333333E-01   4.02952933333333E-01   0.00000000000000E+00   0.00000000000000E+00
      1.65667327643873E-08  -1.78055683525263E-25   1.65667327643873E-08   2.66786837090129E-16
      5.87270577777778E-01
      0.00000000000000E+00   0.00000000000000E+00   0.00000000000000E+00   0.00000000000000E+00   0.00000000000000E+00
      0.00000000000000E+00   0.00000000000000E+00  -3.99562042938770E-16   0.00000000000000E+00   0.00000000000000E+00
      0.00000000000000E+00   0.00000000000000E+00  -1.71306955912149E-08   6.09931482853867E-24  -1.71306955912149E-08
      1.21004197744407E-16   4.40452933333334E-01   4.40452933333334E-01   0.00000000000000E+00   0.00000000000000E+00
      1.71313395217486E-08  -1.14701404266407E-23   1.71313395217486E-08   2.79946293850949E-16
      6.37270577777778E-01
      0.00000000000000E+00   0.00000000000000E+00   0.00000000000000E+00   0.00000000000000E+00   0.00000000000000E+00
      0.00000000000000E+00   0.00000000000000E+00  -4.12655130287616E-16   0.00000000000000E+00   0.00000000000000E+00
      0.00000000000000E+00   0.00000000000000E+00  -1.76907252328902E-08   1.06799222097845E-23  -1.76907252328902E-08
      1.20992994547048E-16   4.77952933333334E-01   4.77952933333334E-01   0.00000000000000E+00   0.00000000000000E+00
      1.76908542456478E-08  -3.52882994337986E-24   1.76908542456478E-08   2.93050643353899E-16
      6.87270577777778E-01
      0.00000000000000E+00   0.00000000000000E+00   0.00000000000000E+00   0.00000000000000E+00   0.00000000000000E+00
      0.00000000000000E+00   0.00000000000000E+00  -4.25695378013847E-16   0.00000000000000E+00   0.00000000000000E+00
      0.00000000000000E+00   0.00000000000000E+00  -1.82473451839687E-08   1.29424460545501E-23  -1.82473451839687E-08
      1.20981886504475E-16   5.15452933333334E-01   5.15452933333334E-01   0.00000000000000E+00   0.00000000000000E+00
      1.82480784724897E-08  -5.71518798148038E-24   1.82480784724897E-08   3.06102139387962E-16
      7.37270577777778E-01
      0.00000000000000E+00   0.00000000000000E+00   0.00000000000000E+00   0.00000000000000E+00   0.00000000000000E+00
      0.00000000000000E+00   0.00000000000000E+00  -4.38684863394657E-16   0.00000000000000E+00   0.00000000000000E+00
      0.00000000000000E+00   0.00000000000000E+00  -1.88017072904457E-08   5.19492953492470E-24  -1.88017072904457E-08
      1.20970868564006E-16   5.52952933333334E-01   5.52952933333334E-01   0.00000000000000E+00   0.00000000000000E+00
      1.88013259802176E-08  -1.47807498595429E-23   1.88013259802176E-08   3.19102824400374E-16
      7.87270577777778E-01
      0.00000000000000E+00   0.00000000000000E+00   0.00000000000000E+00   0.00000000000000E+00   0.00000000000000E+00
      0.00000000000000E+00   0.00000000000000E+00  -4.51625414584337E-16   0.00000000000000E+00   0.00000000000000E+00
      0.00000000000000E+00   0.00000000000000E+00  -1.93545292462256E-08   4.07507289460097E-23  -1.93545292462255E-08
      1.20959936099870E-16   5.90452933333334E-01   5.90452933333334E-01   0.00000000000000E+00   0.00000000000000E+00
      1.93564241576127E-08  -1.45313597681776E-23   1.93564241576127E-08   3.32054518828358E-16
      8.37270577777778E-01
      0.00000000000000E+00   0.00000000000000E+00   0.00000000000000E+00   0.00000000000000E+00   0.00000000000000E+00
      0.00000000000000E+00   0.00000000000000E+00  -4.64518713273223E-16   0.00000000000000E+00   0.00000000000000E+00
      0.00000000000000E+00   0.00000000000000E+00  -1.99071115785822E-08   2.36016655415103E-23  -1.99071115785822E-08
      1.20949084526471E-16   6.27952933333334E-01   6.27952933333334E-01   0.00000000000000E+00   0.00000000000000E+00
      1.99105071013758E-08  -2.04507144882516E-23   1.99105071013758E-08   3.44958882921224E-16
      8.87270577777778E-01
      0.00000000000000E+00   0.00000000000000E+00   0.00000000000000E+00   0.00000000000000E+00   0.00000000000000E+00
      0.00000000000000E+00   0.00000000000000E+00  -4.77366274395003E-16   0.00000000000000E+00   0.00000000000000E+00
      0.00000000000000E+00   0.00000000000000E+00  -2.04605374127177E-08  -2.40588621180564E-22  -2.04605374127180E-08
      1.20938309165842E-16   6.65452933333334E-01   6.65452933333334E-01   0.00000000000000E+00   0.00000000000000E+00
      2.04619025916130E-08  -2.65748072038056E-23   2.04619025916130E-08   3.57817411820787E-16
      8.99770577777778E-01
      0.00000000000000E+00   0.00000000000000E+00   0.00000000000000E+00   0.00000000000000E+00   0.00000000000000E+00
      0.00000000000000E+00   0.00000000000000E+00  -4.80571178712634E-16   0.00000000000000E+00   0.00000000000000E+00
      0.00000000000000E+00   0.00000000000000E+00  -2.05990091732674E-08   5.92011561075441E-22  -2.05990091732668E-08
      1.20935626669223E-16   6.74827933333334E-01   6.74827933333334E-01   0.00000000000000E+00   0.00000000000000E+00
      2.06012097389982E-08  -3.58095600814529E-23   2.06012097389982E-08   3.61025041627655E-16
      9.12270577777778E-01
      0.00000000000000E+00   0.00000000000000E+00   0.00000000000000E+00   0.00000000000000E+00   0.00000000000000E+00
      0.00000000000000E+00   0.00000000000000E+00  -4.83773328289072E-16   0.00000000000000E+00   0.00000000000000E+00
      0.00000000000000E+00   0.00000000000000E+00  -2.07375264120094E-08   8.21135328214345E-22  -2.07375264120086E-08
      1.20932948557048E-16   6.84202933333334E-01   6.84202933333334E-01   0.00000000000000E+00   0.00000000000000E+00
      2.07420504030696E-08  -7.18733059487624E-23   2.07420504030696E-08   3.64229910036122E-16
      9.25603911111112E-01
      0.00000000000000E+00   0.00000000000000E+00   0.00000000000000E+00   0.00000000000000E+00   0.00000000000000E+00
      0.00000000000000E+00   0.00000000000000E+00  -4.87185944034692E-16   0.00000000000000E+00   0.00000000000000E+00
      0.00000000000000E+00   0.00000000000000E+00  -2.08853697535916E-08   1.10461287404912E-22  -2.08853697535915E-08
      1.20930096635529E-16   6.94202933333334E-01   6.94202933333334E-01   0.00000000000000E+00   0.00000000000000E+00
      2.08887715169271E-08   9.83760107851418E-21   2.08887715169369E-08   3.67645416702060E-16
      9.50492800000000E-01
      0.00000000000000E+00   0.00000000000000E+00   0.00000000000000E+00   0.00000000000000E+00   0.00000000000000E+00
      0.00000000000000E+00   0.00000000000000E+00  -4.93547926930236E-16   0.00000000000000E+00   0.00000000000000E+00
      0.00000000000000E+00   0.00000000000000E+00  -2.11616482072091E-08  -8.29722123882954E-22  -2.11616482072099E-08
      1.20924785763140E-16   7.12869600000000E-01   7.12869600000000E-01   0.00000000000000E+00   0.00000000000000E+00
      2.11592717966407E-08   3.22976238077390E-23   2.11592717966408E-08   3.74012767450430E-16
      9.77040948148149E-01
      0.00000000000000E+00   0.00000000000000E+00   0.00000000000000E+00   0.00000000000000E+00   0.00000000000000E+00
      0.00000000000000E+00   0.00000000000000E+00  -5.00322363752953E-16   0.00000000000000E+00   0.00000000000000E+00
      0.00000000000000E+00   0.00000000000000E+00  -2.14567529109522E-08  -1.24737482029733E-21  -2.14567529109534E-08
      1.20919138431722E-16   7.32780711111111E-01   7.32780711111111E-01   0.00000000000000E+00   0.00000000000000E+00
      2.14500840664353E-08   7.46918892364930E-23   2.14500840664354E-08   3.80792885785246E-16
      1.00000000000000E+00
      0.00000000000000E+00   0.00000000000000E+00   0.00000000000000E+00   0.00000000000000E+00   0.00000000000000E+00
      0.00000000000000E+00   0.00000000000000E+00  -5.06171358476116E-16   0.00000000000000E+00   0.00000000000000E+00
      0.00000000000000E+00   0.00000000000000E+00  -2.17122928653141E-08  -2.08314275654422E-21  -2.17122928653162E-08
      1.20914268572268E-16   7.50000000000000E-01   7.50000000000000E-01   0.00000000000000E+00   0.00000000000000E+00
      2.17060355429527E-08   7.99239510262913E-22   2.17060355429535E-08   3.86646753387341E-16
}
