DF-ISE text

Info {
  version   = 1.0
  type      = xyplot
  datasets  = [
    "time"
    "gate OuterVoltage" "gate InnerVoltage" "gate QuasiFermiPotential" "gate DisplacementCurrent" "gate eCurrent"
    "gate hCurrent" "gate TotalCurrent" "gate Charge" "source OuterVoltage" "source InnerVoltage"
    "source QuasiFermiPotential" "source DisplacementCurrent" "source eCurrent" "source hCurrent" "source TotalCurrent"
    "source Charge" "drain OuterVoltage" "drain InnerVoltage" "drain QuasiFermiPotential" "drain DisplacementCurrent"
    "drain eCurrent" "drain hCurrent" "drain TotalCurrent" "drain Charge" ]
  functions = [
    Time
    OuterVoltage InnerVoltage QuasiFermiPotential DisplacementCurrent eCurrent
    hCurrent TotalCurrent Charge OuterVoltage InnerVoltage
    QuasiFermiPotential DisplacementCurrent eCurrent hCurrent TotalCurrent
    Charge OuterVoltage InnerVoltage QuasiFermiPotential DisplacementCurrent
    eCurrent hCurrent TotalCurrent Charge ]
}

Data {
      0.00000000000000E+00
      0.00000000000000E+00   0.00000000000000E+00   0.00000000000000E+00   0.00000000000000E+00   0.00000000000000E+00
      0.00000000000000E+00   0.00000000000000E+00  -2.03449014516929E-16   0.00000000000000E+00   0.00000000000000E+00
      0.00000000000000E+00   0.00000000000000E+00   3.41481392991129E-19  -7.00545522699520E-34   3.41481392991128E-19
      1.89009122770260E-16   0.00000000000000E+00   0.00000000000000E+00   0.00000000000000E+00   0.00000000000000E+00
     -2.23820154656295E-21  -3.07707704246396E-32  -2.23820154659372E-21   1.58801409405691E-16
      0.00000000000000E+00
      0.00000000000000E+00   0.00000000000000E+00   0.00000000000000E+00   0.00000000000000E+00   0.00000000000000E+00
      0.00000000000000E+00   0.00000000000000E+00  -2.03448290025047E-16   0.00000000000000E+00   0.00000000000000E+00
      0.00000000000000E+00   0.00000000000000E+00  -2.25410846320974E-11   1.01416547144771E-26  -2.25410846320974E-11
      1.89010809223390E-16   0.00000000000000E+00   0.00000000000000E+00   0.00000000000000E+00   0.00000000000000E+00
      2.16675313576912E-13   6.83010750567987E-27   2.16675313576919E-13   1.58801043371600E-16
      0.00000000000000E+00
      0.00000000000000E+00   0.00000000000000E+00   0.00000000000000E+00   0.00000000000000E+00   0.00000000000000E+00
      0.00000000000000E+00   0.00000000000000E+00  -2.03448290001395E-16   0.00000000000000E+00   0.00000000000000E+00
      0.00000000000000E+00   0.00000000000000E+00   1.31403060571175E-18   4.58007326738486E-29   1.31403060575755E-18
      1.89010809280140E-16   0.00000000000000E+00   0.00000000000000E+00   0.00000000000000E+00   0.00000000000000E+00
     -4.35197568000808E-21  -5.02682871124563E-29  -4.35197573027637E-21   1.58801043359581E-16
      1.00000000000000E-03
      0.00000000000000E+00   0.00000000000000E+00   0.00000000000000E+00   0.00000000000000E+00   0.00000000000000E+00
      0.00000000000000E+00   0.00000000000000E+00  -2.04283282843942E-16   0.00000000000000E+00   0.00000000000000E+00
      0.00000000000000E+00   0.00000000000000E+00  -5.08008422883519E-10   2.47461772744093E-27  -5.08008422883519E-10
      1.89010722348626E-16   1.50000000000000E-03   1.50000000000000E-03   0.00000000000000E+00   0.00000000000000E+00
      5.08008422757747E-10  -1.14870533936277E-28   5.08008422757747E-10   1.59615899814879E-16
      2.73333333333333E-03
      0.00000000000000E+00   0.00000000000000E+00   0.00000000000000E+00   0.00000000000000E+00   0.00000000000000E+00
      0.00000000000000E+00   0.00000000000000E+00  -2.05728895518366E-16   0.00000000000000E+00   0.00000000000000E+00
      0.00000000000000E+00   0.00000000000000E+00  -1.30952627151082E-09   2.06600134912348E-27  -1.30952627151082E-09
      1.89010573322763E-16   4.10000000000000E-03   4.10000000000000E-03   0.00000000000000E+00   0.00000000000000E+00
      1.30940622499513E-09  -8.28390160251842E-26   1.30940622499513E-09   1.61027948419216E-16
      6.20000000000000E-03
      0.00000000000000E+00   0.00000000000000E+00   0.00000000000000E+00   0.00000000000000E+00   0.00000000000000E+00
      0.00000000000000E+00   0.00000000000000E+00  -2.08613889574320E-16   0.00000000000000E+00   0.00000000000000E+00
      0.00000000000000E+00   0.00000000000000E+00  -2.64917033132899E-09  -4.42275230733618E-33  -2.64917033132899E-09
      1.89010280942542E-16   9.30000000000000E-03   9.30000000000000E-03   0.00000000000000E+00   0.00000000000000E+00
      2.64917033151823E-09  -6.45265393881792E-33   2.64917033151823E-09   1.63850610151359E-16
      1.22088888888889E-02
      0.00000000000000E+00   0.00000000000000E+00   0.00000000000000E+00   0.00000000000000E+00   0.00000000000000E+00
      0.00000000000000E+00   0.00000000000000E+00  -2.13596269893399E-16   0.00000000000000E+00   0.00000000000000E+00
      0.00000000000000E+00   0.00000000000000E+00  -4.31726542831322E-09  -6.37250013334911E-32  -4.31726542831322E-09
      1.89009788986592E-16   1.83133333333333E-02   1.83133333333333E-02   0.00000000000000E+00   0.00000000000000E+00
      4.31726542744459E-09   6.53713444857238E-31   4.31726542744459E-09   1.68738538540234E-16
      2.26242962962963E-02
      0.00000000000000E+00   0.00000000000000E+00   0.00000000000000E+00   0.00000000000000E+00   0.00000000000000E+00
      0.00000000000000E+00   0.00000000000000E+00  -2.22183937256500E-16   0.00000000000000E+00   0.00000000000000E+00
      0.00000000000000E+00   0.00000000000000E+00  -5.93038997517909E-09  -2.93724262097835E-29  -5.93038997517909E-09
      1.89008968298381E-16   3.39364444444444E-02   3.39364444444444E-02   0.00000000000000E+00   0.00000000000000E+00
      5.93038997452818E-09  -6.00491202601323E-30   5.93038997452818E-09   1.77196254757512E-16
      4.06776691358025E-02
      0.00000000000000E+00   0.00000000000000E+00   0.00000000000000E+00   0.00000000000000E+00   0.00000000000000E+00
      0.00000000000000E+00   0.00000000000000E+00  -2.36949795323536E-16   0.00000000000000E+00   0.00000000000000E+00
      0.00000000000000E+00   0.00000000000000E+00  -6.93162492821225E-09   8.38870798398356E-32  -6.93162492821225E-09
      1.89007601272546E-16   6.10165037037037E-02   6.10165037037037E-02   0.00000000000000E+00   0.00000000000000E+00
      6.93162493006666E-09  -9.64301508675832E-33   6.93162493006666E-09   1.91810363858244E-16
      6.95630656790124E-02
      0.00000000000000E+00   0.00000000000000E+00   0.00000000000000E+00   0.00000000000000E+00   0.00000000000000E+00
      0.00000000000000E+00   0.00000000000000E+00  -2.60338139703512E-16   0.00000000000000E+00   0.00000000000000E+00
      0.00000000000000E+00   0.00000000000000E+00  -7.31808810702747E-09  -2.32800779441128E-28  -7.31808810702747E-09
      1.89005479854961E-16   1.04344598518519E-01   1.04344598518519E-01   0.00000000000000E+00   0.00000000000000E+00
      7.31808810757459E-09   1.51607301658096E-29   7.31808810757459E-09   2.15071118566735E-16
      1.15779700148148E-01
      0.00000000000000E+00   0.00000000000000E+00   0.00000000000000E+00   0.00000000000000E+00   0.00000000000000E+00
      0.00000000000000E+00   0.00000000000000E+00  -2.97338691369705E-16   0.00000000000000E+00   0.00000000000000E+00
      0.00000000000000E+00   0.00000000000000E+00  -7.68959297224197E-09  -1.25518844315467E-27  -7.68959297224197E-09
      1.89002164967975E-16   1.73669550222222E-01   1.73669550222222E-01   0.00000000000000E+00   0.00000000000000E+00
      7.68959297451859E-09  -3.57311794178417E-30   7.68959297451859E-09   2.51998956494606E-16
      1.65779700148148E-01
      0.00000000000000E+00   0.00000000000000E+00   0.00000000000000E+00   0.00000000000000E+00   0.00000000000000E+00
      0.00000000000000E+00   0.00000000000000E+00  -3.36966976160995E-16   0.00000000000000E+00   0.00000000000000E+00
      0.00000000000000E+00   0.00000000000000E+00  -8.06302637911984E-09  -2.03125081271323E-28  -8.06302637911984E-09
      1.88998656045487E-16   2.48669550222222E-01   2.48669550222222E-01   0.00000000000000E+00   0.00000000000000E+00
      8.06302637863025E-09  -5.00793839889233E-30   8.06302637863025E-09   2.91611141845563E-16
      2.15779700148148E-01
      0.00000000000000E+00   0.00000000000000E+00   0.00000000000000E+00   0.00000000000000E+00   0.00000000000000E+00
      0.00000000000000E+00   0.00000000000000E+00  -3.76300717053196E-16   0.00000000000000E+00   0.00000000000000E+00
      0.00000000000000E+00   0.00000000000000E+00  -8.41372102427320E-09  -3.18503589787059E-30  -8.41372102427320E-09
      1.88995211199940E-16   3.23669550222222E-01   3.23669550222222E-01   0.00000000000000E+00   0.00000000000000E+00
      8.41372102596952E-09  -5.93572697338491E-31   8.41372102596952E-09   3.30946808252954E-16
      2.65779700148148E-01
      0.00000000000000E+00   0.00000000000000E+00   0.00000000000000E+00   0.00000000000000E+00   0.00000000000000E+00
      0.00000000000000E+00   0.00000000000000E+00  -4.15420921961033E-16   0.00000000000000E+00   0.00000000000000E+00
      0.00000000000000E+00   0.00000000000000E+00  -8.74736974068572E-09   3.78920564087948E-27  -8.74736974068572E-09
      1.88991817783752E-16   3.98669550222222E-01   3.98669550222222E-01   0.00000000000000E+00   0.00000000000000E+00
      8.74736974679466E-09  -3.21604675598423E-25   8.74736974679466E-09   3.70073699797281E-16
      3.15779700148148E-01
      0.00000000000000E+00   0.00000000000000E+00   0.00000000000000E+00   0.00000000000000E+00   0.00000000000000E+00
      0.00000000000000E+00   0.00000000000000E+00  -4.54388736647936E-16   0.00000000000000E+00   0.00000000000000E+00
      0.00000000000000E+00   0.00000000000000E+00  -9.06659661446651E-09  -1.66445206283559E-25  -9.06659661446651E-09
      1.88988463849286E-16   4.73669550222222E-01   4.73669550222222E-01   0.00000000000000E+00   0.00000000000000E+00
      9.06658180740653E-09  -2.80922500945032E-24   9.06658180740653E-09   4.09049401981466E-16
      3.65779700148148E-01
      0.00000000000000E+00   0.00000000000000E+00   0.00000000000000E+00   0.00000000000000E+00   0.00000000000000E+00
      0.00000000000000E+00   0.00000000000000E+00  -4.93252144424400E-16   0.00000000000000E+00   0.00000000000000E+00
      0.00000000000000E+00   0.00000000000000E+00  -9.37411666095253E-09  -1.57622009113727E-27  -9.37411666095253E-09
      1.88985138386544E-16   5.48669550222222E-01   5.48669550222222E-01   0.00000000000000E+00   0.00000000000000E+00
      9.37411665508829E-09  -1.88120984524752E-27   9.37411665508829E-09   4.47920956400960E-16
      4.15779700148148E-01
      0.00000000000000E+00   0.00000000000000E+00   0.00000000000000E+00   0.00000000000000E+00   0.00000000000000E+00
      0.00000000000000E+00   0.00000000000000E+00  -5.32047212700531E-16   0.00000000000000E+00   0.00000000000000E+00
      0.00000000000000E+00   0.00000000000000E+00  -9.67272900953590E-09   7.20218280323490E-27  -9.67272900953590E-09
      1.88981832279367E-16   6.23669550222222E-01   6.23669550222222E-01   0.00000000000000E+00   0.00000000000000E+00
      9.67272875602113E-09  -8.48173456885382E-27   9.67272875602113E-09   4.86724204398808E-16
      4.65779700148148E-01
      0.00000000000000E+00   0.00000000000000E+00   0.00000000000000E+00   0.00000000000000E+00   0.00000000000000E+00
      0.00000000000000E+00   0.00000000000000E+00  -5.70799264260467E-16   0.00000000000000E+00   0.00000000000000E+00
      0.00000000000000E+00   0.00000000000000E+00  -9.96518350818129E-09   8.74006934864565E-27  -9.96518350818129E-09
      1.88978538711589E-16   6.98669550222222E-01   6.98669550222222E-01   0.00000000000000E+00   0.00000000000000E+00
      9.96518349990302E-09  -8.88042662946403E-27   9.96518349990302E-09   5.25484429225700E-16
      5.15779700148148E-01
      0.00000000000000E+00   0.00000000000000E+00   0.00000000000000E+00   0.00000000000000E+00   0.00000000000000E+00
      0.00000000000000E+00   0.00000000000000E+00  -6.09525000912473E-16   0.00000000000000E+00   0.00000000000000E+00
      0.00000000000000E+00   0.00000000000000E+00  -1.02525056553994E-08  -6.56221568349982E-26  -1.02525056553994E-08
      1.88975253001730E-16   7.73669550222222E-01   7.73669550222222E-01   0.00000000000000E+00   0.00000000000000E+00
      1.02525056390104E-08  -2.48422302558329E-26   1.02525056390104E-08   5.64218325954265E-16
      5.65779700148148E-01
      0.00000000000000E+00   0.00000000000000E+00   0.00000000000000E+00   0.00000000000000E+00   0.00000000000000E+00
      0.00000000000000E+00   0.00000000000000E+00  -6.48234927117608E-16   0.00000000000000E+00   0.00000000000000E+00
      0.00000000000000E+00   0.00000000000000E+00  -1.05352513222750E-08   2.63678656588334E-26  -1.05352513222750E-08
      1.88971972068226E-16   8.48669550222222E-01   8.48669550222222E-01   0.00000000000000E+00   0.00000000000000E+00
      1.05352513069632E-08  -2.85633285530357E-26   1.05352513069632E-08   6.02936396804295E-16
      6.15779700148148E-01
      0.00000000000000E+00   0.00000000000000E+00   0.00000000000000E+00   0.00000000000000E+00   0.00000000000000E+00
      0.00000000000000E+00   0.00000000000000E+00  -6.86935443440378E-16   0.00000000000000E+00   0.00000000000000E+00
      0.00000000000000E+00   0.00000000000000E+00  -1.08138246315295E-08  -8.02650067839810E-26  -1.08138246315295E-08
      1.88968693896333E-16   9.23669550222222E-01   9.23669550222222E-01   0.00000000000000E+00   0.00000000000000E+00
      1.08138246618801E-08  -1.06171684943144E-26   1.08138246618801E-08   6.41645037965275E-16
      6.65779700148148E-01
      0.00000000000000E+00   0.00000000000000E+00   0.00000000000000E+00   0.00000000000000E+00   0.00000000000000E+00
      0.00000000000000E+00   0.00000000000000E+00  -7.25630377364091E-16   0.00000000000000E+00   0.00000000000000E+00
      0.00000000000000E+00   0.00000000000000E+00  -1.10886711883913E-08   1.43605536556563E-26  -1.10886711883913E-08
      1.88965417101816E-16   9.98669550222222E-01   9.98669550222222E-01   0.00000000000000E+00   0.00000000000000E+00
      1.10886711796772E-08  -5.14912334985101E-27   1.10886711796772E-08   6.80348067431406E-16
      7.15779700148148E-01
      0.00000000000000E+00   0.00000000000000E+00   0.00000000000000E+00   0.00000000000000E+00   0.00000000000000E+00
      0.00000000000000E+00   0.00000000000000E+00  -7.64321997774590E-16   0.00000000000000E+00   0.00000000000000E+00
      0.00000000000000E+00   0.00000000000000E+00  -1.13602001798494E-08  -1.63320713239982E-23  -1.13602001798494E-08
      1.88962140603270E-16   1.07366955022222E+00   1.07366955022222E+00   0.00000000000000E+00   0.00000000000000E+00
      1.13602100742568E-08  -2.47308369083309E-22   1.13602100742566E-08   7.19047737572957E-16
      7.65779700148148E-01
      0.00000000000000E+00   0.00000000000000E+00   0.00000000000000E+00   0.00000000000000E+00   0.00000000000000E+00
      0.00000000000000E+00   0.00000000000000E+00  -8.03011650263461E-16   0.00000000000000E+00   0.00000000000000E+00
      0.00000000000000E+00   0.00000000000000E+00  -1.16288669556055E-08   1.70718822414500E-23  -1.16288669556055E-08
      1.88958863391316E-16   1.14866955022222E+00   1.14866955022222E+00   0.00000000000000E+00   0.00000000000000E+00
      1.16288387321598E-08  -3.02641845252133E-22   1.16288387321595E-08   7.57745368493307E-16
      8.15779700148148E-01
      0.00000000000000E+00   0.00000000000000E+00   0.00000000000000E+00   0.00000000000000E+00   0.00000000000000E+00
      0.00000000000000E+00   0.00000000000000E+00  -8.41700144353815E-16   0.00000000000000E+00   0.00000000000000E+00
      0.00000000000000E+00   0.00000000000000E+00  -1.18950684678973E-08  -1.63180337956635E-23  -1.18950684678973E-08
      1.88955584300119E-16   1.22366955022222E+00   1.22366955022222E+00   0.00000000000000E+00   0.00000000000000E+00
      1.18950738306749E-08  -3.06715778009363E-22   1.18950738306746E-08   7.96441731171140E-16
      8.65779700148148E-01
      0.00000000000000E+00   0.00000000000000E+00   0.00000000000000E+00   0.00000000000000E+00   0.00000000000000E+00
      0.00000000000000E+00   0.00000000000000E+00  -8.80387986508807E-16   0.00000000000000E+00   0.00000000000000E+00
      0.00000000000000E+00   0.00000000000000E+00  -1.21598704615942E-08   4.29214698673239E-24  -1.21598704615942E-08
      1.88952301831553E-16   1.29866955022222E+00   1.29866955022222E+00   0.00000000000000E+00   0.00000000000000E+00
      1.21598726320200E-08  -2.12353514600829E-22   1.21598726320197E-08   8.35137274929533E-16
      9.15779700148148E-01
      0.00000000000000E+00   0.00000000000000E+00   0.00000000000000E+00   0.00000000000000E+00   0.00000000000000E+00
      0.00000000000000E+00   0.00000000000000E+00  -9.19075515370821E-16   0.00000000000000E+00   0.00000000000000E+00
      0.00000000000000E+00   0.00000000000000E+00  -1.24234608245548E-08  -4.80269010318602E-24  -1.24234608245548E-08
      1.88949013998711E-16   1.37366955022222E+00   1.37366955022222E+00   0.00000000000000E+00   0.00000000000000E+00
      1.24234606312850E-08  -1.84130705370983E-22   1.24234606312848E-08   8.73832261089177E-16
      9.65779700148149E-01
      0.00000000000000E+00   0.00000000000000E+00   0.00000000000000E+00   0.00000000000000E+00   0.00000000000000E+00
      0.00000000000000E+00   0.00000000000000E+00  -9.57762984832651E-16   0.00000000000000E+00   0.00000000000000E+00
      0.00000000000000E+00   0.00000000000000E+00  -1.26859691061175E-08  -1.25969924863242E-23  -1.26859691061175E-08
      1.88945718184132E-16   1.44866955022222E+00   1.44866955022222E+00   0.00000000000000E+00   0.00000000000000E+00
      1.26859680641622E-08  -5.87210981263668E-22   1.26859680641616E-08   9.12526841133164E-16
      1.00000000000000E+00
      0.00000000000000E+00   0.00000000000000E+00   0.00000000000000E+00   0.00000000000000E+00   0.00000000000000E+00
      0.00000000000000E+00   0.00000000000000E+00  -9.84240997374957E-16   0.00000000000000E+00   0.00000000000000E+00
      0.00000000000000E+00   0.00000000000000E+00  -1.28650765327518E-08  -1.25962862804566E-23  -1.28650765327519E-08
      1.88943456256375E-16   1.50000000000000E+00   1.50000000000000E+00   0.00000000000000E+00   0.00000000000000E+00
      1.28650766166068E-08   5.14091269494492E-23   1.28650766166068E-08   9.39009456431553E-16
}
