DF-ISE text

Info {
  version   = 1.0
  type      = xyplot
  datasets  = [
    "time"
    "gate OuterVoltage" "gate InnerVoltage" "gate QuasiFermiPotential" "gate DisplacementCurrent" "gate eCurrent"
    "gate hCurrent" "gate TotalCurrent" "gate Charge" "source OuterVoltage" "source InnerVoltage"
    "source QuasiFermiPotential" "source DisplacementCurrent" "source eCurrent" "source hCurrent" "source TotalCurrent"
    "source Charge" "drain OuterVoltage" "drain InnerVoltage" "drain QuasiFermiPotential" "drain DisplacementCurrent"
    "drain eCurrent" "drain hCurrent" "drain TotalCurrent" "drain Charge" ]
  functions = [
    Time
    OuterVoltage InnerVoltage QuasiFermiPotential DisplacementCurrent eCurrent
    hCurrent TotalCurrent Charge OuterVoltage InnerVoltage
    QuasiFermiPotential DisplacementCurrent eCurrent hCurrent TotalCurrent
    Charge OuterVoltage InnerVoltage QuasiFermiPotential DisplacementCurrent
    eCurrent hCurrent TotalCurrent Charge ]
}

Data {
      0.00000000000000E+00
      0.00000000000000E+00   0.00000000000000E+00   0.00000000000000E+00   0.00000000000000E+00   0.00000000000000E+00
      0.00000000000000E+00   0.00000000000000E+00   2.29207883249150E-16   0.00000000000000E+00   0.00000000000000E+00
      0.00000000000000E+00   0.00000000000000E+00   8.89733591275666E-19  -2.59012869522748E-18  -1.70039510395181E-18
     -1.14977377739659E-16   0.00000000000000E+00   0.00000000000000E+00   0.00000000000000E+00   0.00000000000000E+00
      7.71610780621321E-18  -8.18629431011484E-18  -4.70186503901628E-19  -1.15441887572549E-16
      0.00000000000000E+00
      0.00000000000000E+00   0.00000000000000E+00   0.00000000000000E+00   0.00000000000000E+00   0.00000000000000E+00
      0.00000000000000E+00   0.00000000000000E+00   2.29207816139815E-16   0.00000000000000E+00   0.00000000000000E+00
      0.00000000000000E+00   0.00000000000000E+00  -1.76350479574172E-17  -2.04554086164302E-17  -3.80904565738474E-17
     -1.14977346404201E-16   0.00000000000000E+00   0.00000000000000E+00   0.00000000000000E+00   0.00000000000000E+00
     -5.17265392450294E-17   2.86267770716021E-17  -2.30997621734273E-17  -1.15441851804436E-16
      0.00000000000000E+00
      0.00000000000000E+00   0.00000000000000E+00   0.00000000000000E+00   0.00000000000000E+00   0.00000000000000E+00
      0.00000000000000E+00   0.00000000000000E+00   2.29207816139716E-16   0.00000000000000E+00   0.00000000000000E+00
      0.00000000000000E+00   0.00000000000000E+00   1.38022252739456E-17  -1.37952950373484E-17   6.93023659719693E-21
     -1.14977346404158E-16   0.00000000000000E+00   0.00000000000000E+00   0.00000000000000E+00   0.00000000000000E+00
      1.54321934481098E-17  -1.54328751625309E-17  -6.81714421067289E-22  -1.15441851804380E-16
      1.00000000000000E-03
      0.00000000000000E+00   0.00000000000000E+00   0.00000000000000E+00   0.00000000000000E+00   0.00000000000000E+00
      0.00000000000000E+00   0.00000000000000E+00   2.29499094389301E-16   0.00000000000000E+00   0.00000000000000E+00
      0.00000000000000E+00   0.00000000000000E+00   5.08618086329044E-10   1.77911724816793E-16   5.08618264240769E-10
     -1.14976850010467E-16  -7.80000000000000E-04  -7.80000000000000E-04   0.00000000000000E+00   0.00000000000000E+00
     -5.08618732973836E-10  -6.11314687190422E-14  -5.08679864442556E-10  -1.15733300486406E-16
      2.86666666666667E-03
      0.00000000000000E+00   0.00000000000000E+00   0.00000000000000E+00   0.00000000000000E+00   0.00000000000000E+00
      0.00000000000000E+00   0.00000000000000E+00   2.30042645408776E-16   0.00000000000000E+00   0.00000000000000E+00
      0.00000000000000E+00   0.00000000000000E+00   1.38787020103131E-09  -5.47115236897363E-16   1.38786965391607E-09
     -1.14975924066038E-16  -2.23600000000000E-03  -2.23600000000000E-03   0.00000000000000E+00   0.00000000000000E+00
     -1.38787066480501E-09  -5.50847334976750E-16  -1.38787121565234E-09  -1.16277185554671E-16
      6.60000000000000E-03
      0.00000000000000E+00   0.00000000000000E+00   0.00000000000000E+00   0.00000000000000E+00   0.00000000000000E+00
      0.00000000000000E+00   0.00000000000000E+00   2.31129094975451E-16   0.00000000000000E+00   0.00000000000000E+00
      0.00000000000000E+00   0.00000000000000E+00   2.90143361865396E-09  -8.30884020141581E-15   2.90142530981376E-09
     -1.14974074736054E-16  -5.14800000000000E-03  -5.14800000000000E-03   0.00000000000000E+00   0.00000000000000E+00
     -2.90143388690990E-09  -1.27795919522777E-14  -2.90144666650185E-09  -1.17364362865849E-16
      1.40666666666667E-02
      0.00000000000000E+00   0.00000000000000E+00   0.00000000000000E+00   0.00000000000000E+00   0.00000000000000E+00
      0.00000000000000E+00   0.00000000000000E+00   2.33299425763017E-16   0.00000000000000E+00   0.00000000000000E+00
      0.00000000000000E+00   0.00000000000000E+00   5.14148020102112E-09   3.52475485475163E-17   5.14148023626867E-09
     -1.14970386198021E-16  -1.09720000000000E-02  -1.09720000000000E-02   0.00000000000000E+00   0.00000000000000E+00
     -5.14148018299225E-09  -5.32670366984500E-17  -5.14148023625929E-09  -1.19536368980485E-16
      2.70088888888889E-02
      0.00000000000000E+00   0.00000000000000E+00   0.00000000000000E+00   0.00000000000000E+00   0.00000000000000E+00
      0.00000000000000E+00   0.00000000000000E+00   2.37053450799838E-16   0.00000000000000E+00   0.00000000000000E+00
      0.00000000000000E+00   0.00000000000000E+00   7.36693039001789E-09   1.42863023540634E-16   7.36693053288091E-09
     -1.14964023780689E-16  -2.10669333333333E-02  -2.10669333333333E-02   0.00000000000000E+00   0.00000000000000E+00
     -7.36693045930453E-09   1.19038940263456E-17  -7.36693044740063E-09  -1.23293894321594E-16
      5.11677037037037E-02
      0.00000000000000E+00   0.00000000000000E+00   0.00000000000000E+00   0.00000000000000E+00   0.00000000000000E+00
      0.00000000000000E+00   0.00000000000000E+00   2.44035534627331E-16   0.00000000000000E+00   0.00000000000000E+00
      0.00000000000000E+00   0.00000000000000E+00   8.88622943965477E-09   2.23480775885439E-15   8.88623167446253E-09
     -1.14952245590280E-16  -3.99108088888889E-02  -3.99108088888889E-02   0.00000000000000E+00   0.00000000000000E+00
     -8.88622976861136E-09   3.27096890815750E-15  -8.88622649764245E-09  -1.30284035203215E-16
      9.62641580246914E-02
      0.00000000000000E+00   0.00000000000000E+00   0.00000000000000E+00   0.00000000000000E+00   0.00000000000000E+00
      0.00000000000000E+00   0.00000000000000E+00   2.56987331078228E-16   0.00000000000000E+00   0.00000000000000E+00
      0.00000000000000E+00   0.00000000000000E+00   9.64110291798211E-09   3.41043551533786E-18   9.64110292139254E-09
     -1.14930560606454E-16  -7.50860432592593E-02  -7.50860432592593E-02   0.00000000000000E+00   0.00000000000000E+00
     -9.64110291065481E-09  -1.07448208512982E-17  -9.64110292139963E-09  -1.43253978084204E-16
      1.46264158024691E-01
      0.00000000000000E+00   0.00000000000000E+00   0.00000000000000E+00   0.00000000000000E+00   0.00000000000000E+00
      0.00000000000000E+00   0.00000000000000E+00   2.71236120735359E-16   0.00000000000000E+00   0.00000000000000E+00
      0.00000000000000E+00   0.00000000000000E+00   1.02628984851205E-08   2.88393924580996E-17   1.02628985139599E-08
     -1.14906911495596E-16  -1.14086043259259E-01  -1.14086043259259E-01   0.00000000000000E+00   0.00000000000000E+00
     -1.02628985595082E-08   4.55504006144901E-17  -1.02628985139578E-08  -1.57524945357772E-16
      1.96264158024691E-01
      0.00000000000000E+00   0.00000000000000E+00   0.00000000000000E+00   0.00000000000000E+00   0.00000000000000E+00
      0.00000000000000E+00   0.00000000000000E+00   2.85380404941395E-16   0.00000000000000E+00   0.00000000000000E+00
      0.00000000000000E+00   0.00000000000000E+00   1.08802096934279E-08   9.78758583841199E-17   1.08802097913038E-08
     -1.14883621940884E-16  -1.53086043259259E-01  -1.53086043259259E-01   0.00000000000000E+00   0.00000000000000E+00
     -1.08802098786103E-08   8.73144245411320E-17  -1.08802097912959E-08  -1.71692074961996E-16
      2.46264158024691E-01
      0.00000000000000E+00   0.00000000000000E+00   0.00000000000000E+00   0.00000000000000E+00   0.00000000000000E+00
      0.00000000000000E+00   0.00000000000000E+00   2.99430333619347E-16   0.00000000000000E+00   0.00000000000000E+00
      0.00000000000000E+00   0.00000000000000E+00   1.14959896775131E-08   1.61095165524290E-16   1.14959898386082E-08
     -1.14860650920363E-16  -1.92086043259259E-01  -1.92086043259259E-01   0.00000000000000E+00   0.00000000000000E+00
     -1.14959898645938E-08   2.59987919807127E-17  -1.14959898385950E-08  -1.85764933550958E-16
      2.96264158024691E-01
      0.00000000000000E+00   0.00000000000000E+00   0.00000000000000E+00   0.00000000000000E+00   0.00000000000000E+00
      0.00000000000000E+00   0.00000000000000E+00   3.13394088739886E-16   0.00000000000000E+00   0.00000000000000E+00
      0.00000000000000E+00   0.00000000000000E+00   1.21115895560656E-08  -3.66683013098242E-17   1.21115895193973E-08
     -1.14837966353314E-16  -2.31086043259259E-01  -2.31086043259259E-01   0.00000000000000E+00   0.00000000000000E+00
     -1.21115895360030E-08   1.66142468921906E-17  -1.21115895193888E-08  -1.99751490754631E-16
      3.46264158024691E-01
      0.00000000000000E+00   0.00000000000000E+00   0.00000000000000E+00   0.00000000000000E+00   0.00000000000000E+00
      0.00000000000000E+00   0.00000000000000E+00   3.27278420944922E-16   0.00000000000000E+00   0.00000000000000E+00
      0.00000000000000E+00   0.00000000000000E+00   1.27280661344254E-08  -4.28648993747294E-17   1.27280660915605E-08
     -1.14815542234655E-16  -2.70086043259259E-01  -2.70086043259259E-01   0.00000000000000E+00   0.00000000000000E+00
     -1.27280661884048E-08   9.68684766307151E-17  -1.27280660915363E-08  -2.13658425834519E-16
      3.96264158024691E-01
      0.00000000000000E+00   0.00000000000000E+00   0.00000000000000E+00   0.00000000000000E+00   0.00000000000000E+00
      0.00000000000000E+00   0.00000000000000E+00   3.41088992865299E-16   0.00000000000000E+00   0.00000000000000E+00
      0.00000000000000E+00   0.00000000000000E+00   1.33462657258851E-08   6.15095074224992E-16   1.33462663409801E-08
     -1.14793357003213E-16  -3.09086043259259E-01  -3.09086043259259E-01   0.00000000000000E+00   0.00000000000000E+00
     -1.33461904001620E-08   8.81150087681906E-15  -1.33461815886612E-08  -2.27491382876134E-16
      4.46264158024691E-01
      0.00000000000000E+00   0.00000000000000E+00   0.00000000000000E+00   0.00000000000000E+00   0.00000000000000E+00
      0.00000000000000E+00   0.00000000000000E+00   3.54830615470765E-16   0.00000000000000E+00   0.00000000000000E+00
      0.00000000000000E+00   0.00000000000000E+00   1.39668806652957E-08   1.63997545272226E-16   1.39668808292932E-08
     -1.14771392486039E-16  -3.48086043259259E-01  -3.48086043259259E-01   0.00000000000000E+00   0.00000000000000E+00
     -1.39668812057226E-08   4.09557002172821E-16  -1.39668807961656E-08  -2.41255169351928E-16
      4.96264158024691E-01
      0.00000000000000E+00   0.00000000000000E+00   0.00000000000000E+00   0.00000000000000E+00   0.00000000000000E+00
      0.00000000000000E+00   0.00000000000000E+00   3.68507418829438E-16   0.00000000000000E+00   0.00000000000000E+00
      0.00000000000000E+00   0.00000000000000E+00   1.45904776548025E-08   3.35536972725575E-15   1.45904810101722E-08
     -1.14749633162893E-16  -3.87086043259259E-01  -3.87086043259259E-01   0.00000000000000E+00   0.00000000000000E+00
     -1.45905286618179E-08   6.40617715245183E-14  -1.45904646000464E-08  -2.54953926890117E-16
      5.46264158024691E-01
      0.00000000000000E+00   0.00000000000000E+00   0.00000000000000E+00   0.00000000000000E+00   0.00000000000000E+00
      0.00000000000000E+00   0.00000000000000E+00   3.82122979391372E-16   0.00000000000000E+00   0.00000000000000E+00
      0.00000000000000E+00   0.00000000000000E+00   1.52175438210401E-08   2.21875664786783E-15   1.52175460397967E-08
     -1.14728065632566E-16  -4.26086043259259E-01  -4.26086043259259E-01   0.00000000000000E+00   0.00000000000000E+00
     -1.52175135334942E-08   1.16554810537822E-14  -1.52175018780131E-08  -2.68591251962230E-16
      5.96264158024691E-01
      0.00000000000000E+00   0.00000000000000E+00   0.00000000000000E+00   0.00000000000000E+00   0.00000000000000E+00
      0.00000000000000E+00   0.00000000000000E+00   3.95680417447797E-16   0.00000000000000E+00   0.00000000000000E+00
      0.00000000000000E+00   0.00000000000000E+00   1.58484823990664E-08  -1.57237732812811E-16   1.58484822418286E-08
     -1.14706678209357E-16  -4.65086043259259E-01  -4.65086043259259E-01   0.00000000000000E+00   0.00000000000000E+00
     -1.58484823241067E-08   5.50855833650698E-16  -1.58484817732509E-08  -2.82170276154120E-16
      6.46264158024691E-01
      0.00000000000000E+00   0.00000000000000E+00   0.00000000000000E+00   0.00000000000000E+00   0.00000000000000E+00
      0.00000000000000E+00   0.00000000000000E+00   4.09182470778019E-16   0.00000000000000E+00   0.00000000000000E+00
      0.00000000000000E+00   0.00000000000000E+00   1.64836376745282E-08  -3.31769184408220E-16   1.64836373427590E-08
     -1.14685460628469E-16  -5.04086043259259E-01  -5.04086043259259E-01   0.00000000000000E+00   0.00000000000000E+00
     -1.64836362940862E-08  -9.91339805132247E-16  -1.64836372854260E-08  -2.95693746079185E-16
      6.96264158024691E-01
      0.00000000000000E+00   0.00000000000000E+00   0.00000000000000E+00   0.00000000000000E+00   0.00000000000000E+00
      0.00000000000000E+00   0.00000000000000E+00   4.22631554848776E-16   0.00000000000000E+00   0.00000000000000E+00
      0.00000000000000E+00   0.00000000000000E+00   1.71233115551370E-08   3.32232222825151E-16   1.71233118873692E-08
     -1.14664403796021E-16  -5.43086043259259E-01  -5.43086043259259E-01   0.00000000000000E+00   0.00000000000000E+00
     -1.71233053870553E-08  -6.13272234848311E-15  -1.71233115197777E-08  -3.09164085326991E-16
      7.46264158024691E-01
      0.00000000000000E+00   0.00000000000000E+00   0.00000000000000E+00   0.00000000000000E+00   0.00000000000000E+00
      0.00000000000000E+00   0.00000000000000E+00   4.36029808324394E-16   0.00000000000000E+00   0.00000000000000E+00
      0.00000000000000E+00   0.00000000000000E+00   1.77677675271856E-08   9.86118412315036E-17   1.77677676257975E-08
     -1.14643499603166E-16  -5.82086043259259E-01  -5.82086043259259E-01   0.00000000000000E+00   0.00000000000000E+00
     -1.77677677188485E-08   1.54294168418013E-16  -1.77677675645543E-08  -3.22583440433749E-16
      7.96264158024692E-01
      0.00000000000000E+00   0.00000000000000E+00   0.00000000000000E+00   0.00000000000000E+00   0.00000000000000E+00
      0.00000000000000E+00   0.00000000000000E+00   4.49379130039627E-16   0.00000000000000E+00   0.00000000000000E+00
      0.00000000000000E+00   0.00000000000000E+00   1.84172335601213E-08   3.58323029793256E-16   1.84172339184443E-08
     -1.14622740786271E-16  -6.21086043259259E-01  -6.21086043259259E-01   0.00000000000000E+00   0.00000000000000E+00
     -1.84172342830048E-08   3.63878585315478E-16  -1.84172339191262E-08  -3.35953718012966E-16
      8.46264158024692E-01
      0.00000000000000E+00   0.00000000000000E+00   0.00000000000000E+00   0.00000000000000E+00   0.00000000000000E+00
      0.00000000000000E+00   0.00000000000000E+00   4.62681210028641E-16   0.00000000000000E+00   0.00000000000000E+00
      0.00000000000000E+00   0.00000000000000E+00   1.90719123184510E-08   8.37065430256221E-17   1.90719124021576E-08
     -1.14602120840431E-16  -6.60086043259259E-01  -6.60086043259259E-01   0.00000000000000E+00   0.00000000000000E+00
     -1.90719124116650E-08   1.13028919021626E-17  -1.90719124003621E-08  -3.49276615001485E-16
      8.96264158024692E-01
      0.00000000000000E+00   0.00000000000000E+00   0.00000000000000E+00   0.00000000000000E+00   0.00000000000000E+00
      0.00000000000000E+00   0.00000000000000E+00   4.75937555249622E-16   0.00000000000000E+00   0.00000000000000E+00
      0.00000000000000E+00   0.00000000000000E+00   1.97319819297021E-08   3.33385737358113E-17   1.97319819630407E-08
     -1.14581633878832E-16  -6.99086043259259E-01  -6.99086043259259E-01   0.00000000000000E+00   0.00000000000000E+00
     -1.97319818010684E-08  -1.61454631488617E-16  -1.97319819625230E-08  -3.62553644427867E-16
      9.46264158024692E-01
      0.00000000000000E+00   0.00000000000000E+00   0.00000000000000E+00   0.00000000000000E+00   0.00000000000000E+00
      0.00000000000000E+00   0.00000000000000E+00   4.89149511519904E-16   0.00000000000000E+00   0.00000000000000E+00
      0.00000000000000E+00   0.00000000000000E+00   2.03976040652503E-08   8.82362117050528E-17   2.03976041534865E-08
     -1.14561274456758E-16  -7.38086043259260E-01  -7.38086043259260E-01   0.00000000000000E+00   0.00000000000000E+00
     -2.03976042545128E-08   1.01290927502501E-16  -2.03976041532219E-08  -3.75786156479634E-16
      9.96264158024692E-01
      0.00000000000000E+00   0.00000000000000E+00   0.00000000000000E+00   0.00000000000000E+00   0.00000000000000E+00
      0.00000000000000E+00   0.00000000000000E+00   5.02318280785630E-16   0.00000000000000E+00   0.00000000000000E+00
      0.00000000000000E+00   0.00000000000000E+00   2.10689241544572E-08   7.96018760825544E-17   2.10689242340591E-08
     -1.14541037597176E-16  -7.77086043259260E-01  -7.77086043259260E-01   0.00000000000000E+00   0.00000000000000E+00
     -2.10689241543183E-08  -7.97864225569500E-17  -2.10689242341047E-08  -3.88975356960880E-16
      1.00000000000000E+00
      0.00000000000000E+00   0.00000000000000E+00   0.00000000000000E+00   0.00000000000000E+00   0.00000000000000E+00
      0.00000000000000E+00   0.00000000000000E+00   5.03300506297473E-16   0.00000000000000E+00   0.00000000000000E+00
      0.00000000000000E+00   0.00000000000000E+00   2.11193112345099E-08   4.39017458797299E-15   2.11193156246845E-08
     -1.14539530356065E-16  -7.80000000000000E-01  -7.80000000000000E-01   0.00000000000000E+00   0.00000000000000E+00
     -2.11193193504170E-08   3.78285460907093E-15  -2.11193155675624E-08  -3.89959104146974E-16
}
