DF-ISE text

Info {
  version   = 1.0
  type      = xyplot
  datasets  = [
    "time"
    "gate OuterVoltage" "gate InnerVoltage" "gate QuasiFermiPotential" "gate DisplacementCurrent" "gate eCurrent"
    "gate hCurrent" "gate TotalCurrent" "gate Charge" "source OuterVoltage" "source InnerVoltage"
    "source QuasiFermiPotential" "source DisplacementCurrent" "source eCurrent" "source hCurrent" "source TotalCurrent"
    "source Charge" "drain OuterVoltage" "drain InnerVoltage" "drain QuasiFermiPotential" "drain DisplacementCurrent"
    "drain eCurrent" "drain hCurrent" "drain TotalCurrent" "drain Charge" ]
  functions = [
    Time
    OuterVoltage InnerVoltage QuasiFermiPotential DisplacementCurrent eCurrent
    hCurrent TotalCurrent Charge OuterVoltage InnerVoltage
    QuasiFermiPotential DisplacementCurrent eCurrent hCurrent TotalCurrent
    Charge OuterVoltage InnerVoltage QuasiFermiPotential DisplacementCurrent
    eCurrent hCurrent TotalCurrent Charge ]
}

Data {
      0.00000000000000E+00
      0.00000000000000E+00   0.00000000000000E+00   0.00000000000000E+00   0.00000000000000E+00   0.00000000000000E+00
      0.00000000000000E+00   0.00000000000000E+00  -2.20027294064413E-16   0.00000000000000E+00   0.00000000000000E+00
      0.00000000000000E+00   0.00000000000000E+00  -9.96559969365464E-21  -1.31748105061217E-32  -9.96559969366781E-21
      1.11759819329844E-16   0.00000000000000E+00   0.00000000000000E+00   0.00000000000000E+00   0.00000000000000E+00
      1.39921098798899E-22   7.22897626509401E-32   1.39921098871189E-22   1.12259695070199E-16
      0.00000000000000E+00
      0.00000000000000E+00   0.00000000000000E+00   0.00000000000000E+00   0.00000000000000E+00   0.00000000000000E+00
      0.00000000000000E+00   0.00000000000000E+00  -2.33387842631784E-16   0.00000000000000E+00   0.00000000000000E+00
      0.00000000000000E+00   0.00000000000000E+00   2.04440551045904E-20  -1.07131354030327E-32   2.04440551045797E-20
      1.16270882363440E-16   0.00000000000000E+00   0.00000000000000E+00   0.00000000000000E+00   0.00000000000000E+00
     -1.52756132413871E-21   6.01015290037864E-32  -1.52756132407861E-21   1.21334653282643E-16
      0.00000000000000E+00
      0.00000000000000E+00   0.00000000000000E+00   0.00000000000000E+00   0.00000000000000E+00   0.00000000000000E+00
      0.00000000000000E+00   0.00000000000000E+00  -2.33387842375084E-16   0.00000000000000E+00   0.00000000000000E+00
      0.00000000000000E+00   0.00000000000000E+00  -1.54437682818858E-18  -1.19042865698216E-28  -1.54437682830762E-18
      1.16270882345478E-16   0.00000000000000E+00   0.00000000000000E+00   0.00000000000000E+00   0.00000000000000E+00
     -1.19462009698687E-18   1.61783924544980E-28  -1.19462009682508E-18   1.21334653222144E-16
      1.00000000000000E-03
      0.00000000000000E+00   0.00000000000000E+00   0.00000000000000E+00   0.00000000000000E+00   0.00000000000000E+00
      0.00000000000000E+00   0.00000000000000E+00  -2.33727930041887E-16   0.00000000000000E+00   0.00000000000000E+00
      0.00000000000000E+00   0.00000000000000E+00  -1.08101480348020E-10   2.91022481434183E-27  -1.08101480348020E-10
      1.16270882513008E-16   9.00000000000000E-04   9.00000000000000E-04   0.00000000000000E+00   0.00000000000000E+00
      1.23164984065664E-10   8.22417564061885E-26   1.23164984065664E-10   1.21674030960364E-16
      2.86666666666667E-03
      0.00000000000000E+00   0.00000000000000E+00   0.00000000000000E+00   0.00000000000000E+00   0.00000000000000E+00
      0.00000000000000E+00   0.00000000000000E+00  -2.34362531206962E-16   0.00000000000000E+00   0.00000000000000E+00
      0.00000000000000E+00   0.00000000000000E+00  -2.94806260257413E-10  -4.83708156892174E-28  -2.94806260257413E-10
      1.16270882800943E-16   2.58000000000000E-03   2.58000000000000E-03   0.00000000000000E+00   0.00000000000000E+00
      2.94806260260957E-10   2.91701633154682E-28   2.94806260260957E-10   1.22307338474805E-16
      6.35111111111111E-03
      0.00000000000000E+00   0.00000000000000E+00   0.00000000000000E+00   0.00000000000000E+00   0.00000000000000E+00
      0.00000000000000E+00   0.00000000000000E+00  -2.35546328729469E-16   0.00000000000000E+00   0.00000000000000E+00
      0.00000000000000E+00   0.00000000000000E+00  -5.96098755581706E-10  -2.16492831678631E-27  -5.96098755581706E-10
      1.16270883261548E-16   5.71600000000000E-03   5.71600000000000E-03   0.00000000000000E+00   0.00000000000000E+00
      5.96394307162550E-10   5.78062016407094E-27   5.96394307162550E-10   1.23488827061824E-16
      1.33200000000000E-02
      0.00000000000000E+00   0.00000000000000E+00   0.00000000000000E+00   0.00000000000000E+00   0.00000000000000E+00
      0.00000000000000E+00   0.00000000000000E+00  -2.37910885125696E-16   0.00000000000000E+00   0.00000000000000E+00
      0.00000000000000E+00   0.00000000000000E+00  -1.04812883430977E-09  -3.24220544636126E-30  -1.04812883430977E-09
      1.16270883941778E-16   1.19880000000000E-02   1.19880000000000E-02   0.00000000000000E+00   0.00000000000000E+00
      1.04812883402205E-09   4.14398301981745E-30   1.04812883402205E-09   1.25849150091742E-16
      2.53994074074074E-02
      0.00000000000000E+00   0.00000000000000E+00   0.00000000000000E+00   0.00000000000000E+00   0.00000000000000E+00
      0.00000000000000E+00   0.00000000000000E+00  -2.42000139125276E-16   0.00000000000000E+00   0.00000000000000E+00
      0.00000000000000E+00   0.00000000000000E+00  -1.50345460946013E-09  -4.29846393245345E-32  -1.50345460946013E-09
      1.16270884610046E-16   2.28594666666667E-02   2.28594666666667E-02   0.00000000000000E+00   0.00000000000000E+00
      1.50345460920605E-09   1.08393018230434E-31   1.50345460920605E-09   1.29932130408949E-16
      4.47264592592593E-02
      0.00000000000000E+00   0.00000000000000E+00   0.00000000000000E+00   0.00000000000000E+00   0.00000000000000E+00
      0.00000000000000E+00   0.00000000000000E+00  -2.48519549797313E-16   0.00000000000000E+00   0.00000000000000E+00
      0.00000000000000E+00   0.00000000000000E+00  -1.77343221995353E-09  -7.49644864960091E-30  -1.77343221995353E-09
      1.16270884989641E-16   4.02538133333333E-02   4.02538133333333E-02   0.00000000000000E+00   0.00000000000000E+00
      1.77343222006008E-09  -3.46659368888074E-30   1.77343222006008E-09   1.36443751145425E-16
      7.56497422222222E-02
      0.00000000000000E+00   0.00000000000000E+00   0.00000000000000E+00   0.00000000000000E+00   0.00000000000000E+00
      0.00000000000000E+00   0.00000000000000E+00  -2.58894874798628E-16   0.00000000000000E+00   0.00000000000000E+00
      0.00000000000000E+00   0.00000000000000E+00  -1.82542160279863E-09  -1.06673309980029E-26  -1.82542160279863E-09
      1.16270885040935E-16   6.80847680000000E-02   6.80847680000000E-02   0.00000000000000E+00   0.00000000000000E+00
      1.82542153037697E-09   1.34614935506112E-25   1.82542153037697E-09   1.46810640714482E-16
      1.25649742222222E-01
      0.00000000000000E+00   0.00000000000000E+00   0.00000000000000E+00   0.00000000000000E+00   0.00000000000000E+00
      0.00000000000000E+00   0.00000000000000E+00  -2.75539557004327E-16   0.00000000000000E+00   0.00000000000000E+00
      0.00000000000000E+00   0.00000000000000E+00  -1.82874748763372E-09  -1.46353796608268E-26  -1.82874748763372E-09
      1.16270885007879E-16   1.13084768000000E-01   1.13084768000000E-01   0.00000000000000E+00   0.00000000000000E+00
      1.82874746810270E-09  -1.14626672058203E-26   1.82874746810270E-09   1.63447740371776E-16
      1.50649742222222E-01
      0.00000000000000E+00   0.00000000000000E+00   0.00000000000000E+00   0.00000000000000E+00   0.00000000000000E+00
      0.00000000000000E+00   0.00000000000000E+00  -2.83806481919244E-16   0.00000000000000E+00   0.00000000000000E+00
      0.00000000000000E+00   0.00000000000000E+00  -1.83438349371819E-09  -4.91899610893994E-26  -1.83438349371819E-09
      1.16270884997332E-16   1.35584768000000E-01   1.35584768000000E-01   0.00000000000000E+00   0.00000000000000E+00
      1.83438344894525E-09  -9.05506254526806E-26   1.83438344894525E-09   1.71712479228301E-16
      1.90649742222222E-01
      0.00000000000000E+00   0.00000000000000E+00   0.00000000000000E+00   0.00000000000000E+00   0.00000000000000E+00
      0.00000000000000E+00   0.00000000000000E+00  -2.96963254171227E-16   0.00000000000000E+00   0.00000000000000E+00
      0.00000000000000E+00   0.00000000000000E+00  -1.84297545391295E-09  -1.22946033807835E-23  -1.84297545391296E-09
      1.16270884980217E-16   1.71584768000000E-01   1.71584768000000E-01   0.00000000000000E+00   0.00000000000000E+00
      1.84297545375175E-09  -5.39673014932912E-25   1.84297545375175E-09   1.84867010100193E-16
      2.40649742222222E-01
      0.00000000000000E+00   0.00000000000000E+00   0.00000000000000E+00   0.00000000000000E+00   0.00000000000000E+00
      0.00000000000000E+00   0.00000000000000E+00  -3.13296743916945E-16   0.00000000000000E+00   0.00000000000000E+00
      0.00000000000000E+00   0.00000000000000E+00  -1.85219899151544E-09  -4.38063590473013E-26  -1.85219899151544E-09
      1.16270884957165E-16   2.16584768000000E-01   2.16584768000000E-01   0.00000000000000E+00   0.00000000000000E+00
      1.85219899146390E-09  -3.30468012124649E-27   1.85219899146390E-09   2.01198975637788E-16
      2.90649742222222E-01
      0.00000000000000E+00   0.00000000000000E+00   0.00000000000000E+00   0.00000000000000E+00   0.00000000000000E+00
      0.00000000000000E+00   0.00000000000000E+00  -3.29515654077192E-16   0.00000000000000E+00   0.00000000000000E+00
      0.00000000000000E+00   0.00000000000000E+00  -1.85989137798367E-09  -1.23580866578970E-27  -1.85989137798367E-09
      1.16270884932387E-16   2.61584768000000E-01   2.61584768000000E-01   0.00000000000000E+00   0.00000000000000E+00
      1.85989137785948E-09   1.38647975651352E-27   1.85989137785948E-09   2.17417105968860E-16
      3.40649742222222E-01
      0.00000000000000E+00   0.00000000000000E+00   0.00000000000000E+00   0.00000000000000E+00   0.00000000000000E+00
      0.00000000000000E+00   0.00000000000000E+00  -3.45629181907431E-16   0.00000000000000E+00   0.00000000000000E+00
      0.00000000000000E+00   0.00000000000000E+00  -1.86689671645755E-09   2.81706966438029E-30  -1.86689671645755E-09
      1.16270884906804E-16   3.06584768000000E-01   3.06584768000000E-01   0.00000000000000E+00   0.00000000000000E+00
      1.86689671669532E-09   3.17169842113963E-28   1.86689671669532E-09   2.33530230270642E-16
      3.90649742222222E-01
      0.00000000000000E+00   0.00000000000000E+00   0.00000000000000E+00   0.00000000000000E+00   0.00000000000000E+00
      0.00000000000000E+00   0.00000000000000E+00  -3.61644981709100E-16   0.00000000000000E+00   0.00000000000000E+00
      0.00000000000000E+00   0.00000000000000E+00  -1.87327112263148E-09  -1.95622640284865E-28  -1.87327112263148E-09
      1.16270884879407E-16   3.51584768000000E-01   3.51584768000000E-01   0.00000000000000E+00   0.00000000000000E+00
      1.87327112285695E-09   2.51415697079561E-27   1.87327112285695E-09   2.49545819666419E-16
      4.40649742222222E-01
      0.00000000000000E+00   0.00000000000000E+00   0.00000000000000E+00   0.00000000000000E+00   0.00000000000000E+00
      0.00000000000000E+00   0.00000000000000E+00  -3.77569524162198E-16   0.00000000000000E+00   0.00000000000000E+00
      0.00000000000000E+00   0.00000000000000E+00  -1.87934803798833E-09  -7.61744639166672E-25  -1.87934803798833E-09
      1.16270884846213E-16   3.96584768000000E-01   3.96584768000000E-01   0.00000000000000E+00   0.00000000000000E+00
      1.87934831700822E-09  -2.70820050447245E-24   1.87934831700821E-09   2.65470247468051E-16
      4.90649742222222E-01
      0.00000000000000E+00   0.00000000000000E+00   0.00000000000000E+00   0.00000000000000E+00   0.00000000000000E+00
      0.00000000000000E+00   0.00000000000000E+00  -3.93408329267453E-16   0.00000000000000E+00   0.00000000000000E+00
      0.00000000000000E+00   0.00000000000000E+00  -1.88510121921893E-09  -1.58654621060337E-23  -1.88510121921894E-09
      1.16270884789269E-16   4.41584768000000E-01   4.41584768000000E-01   0.00000000000000E+00   0.00000000000000E+00
      1.88515878706228E-09  -9.37513557017485E-23   1.88515878706218E-09   2.81308986239884E-16
      5.40649742222222E-01
      0.00000000000000E+00   0.00000000000000E+00   0.00000000000000E+00   0.00000000000000E+00   0.00000000000000E+00
      0.00000000000000E+00   0.00000000000000E+00  -4.09166162527491E-16   0.00000000000000E+00   0.00000000000000E+00
      0.00000000000000E+00   0.00000000000000E+00  -1.89057425418375E-09  -9.45605985643012E-23  -1.89057425418384E-09
      1.16270884643345E-16   4.86584768000000E-01   4.86584768000000E-01   0.00000000000000E+00   0.00000000000000E+00
      1.89057637845004E-09  -9.96527998345808E-22   1.89057637844904E-09   2.97066769759741E-16
      5.90649742222222E-01
      0.00000000000000E+00   0.00000000000000E+00   0.00000000000000E+00   0.00000000000000E+00   0.00000000000000E+00
      0.00000000000000E+00   0.00000000000000E+00  -4.24847201502322E-16   0.00000000000000E+00   0.00000000000000E+00
      0.00000000000000E+00   0.00000000000000E+00  -1.89579777488224E-09   9.47690767476594E-25  -1.89579777488224E-09
      1.16270884198431E-16   5.31584768000000E-01   5.31584768000000E-01   0.00000000000000E+00   0.00000000000000E+00
      1.89581174423412E-09  -4.38123618935555E-22   1.89581174423368E-09   3.12747728451224E-16
      6.40649742222222E-01
      0.00000000000000E+00   0.00000000000000E+00   0.00000000000000E+00   0.00000000000000E+00   0.00000000000000E+00
      0.00000000000000E+00   0.00000000000000E+00  -4.40455150752750E-16   0.00000000000000E+00   0.00000000000000E+00
      0.00000000000000E+00   0.00000000000000E+00  -1.90078073050236E-09  -9.07612948429345E-24  -1.90078073050237E-09
      1.16270882829562E-16   5.76584768000000E-01   5.76584768000000E-01   0.00000000000000E+00   0.00000000000000E+00
      1.90082613766770E-09  -8.83059387241502E-21   1.90082613765887E-09   3.28355469938687E-16
      6.90649742222222E-01
      0.00000000000000E+00   0.00000000000000E+00   0.00000000000000E+00   0.00000000000000E+00   0.00000000000000E+00
      0.00000000000000E+00   0.00000000000000E+00  -4.55993436543904E-16   0.00000000000000E+00   0.00000000000000E+00
      0.00000000000000E+00   0.00000000000000E+00  -1.90555549433061E-09  -1.73642646038540E-22  -1.90555549433078E-09
      1.16270878792502E-16   6.21584768000000E-01   6.21584768000000E-01   0.00000000000000E+00   0.00000000000000E+00
      1.90553262833452E-09  -3.36082417146455E-21   1.90553262833115E-09   3.43893164907822E-16
      7.40649742222222E-01
      0.00000000000000E+00   0.00000000000000E+00   0.00000000000000E+00   0.00000000000000E+00   0.00000000000000E+00
      0.00000000000000E+00   0.00000000000000E+00  -4.71465390142948E-16   0.00000000000000E+00   0.00000000000000E+00
      0.00000000000000E+00   0.00000000000000E+00  -1.91017138187215E-09  -1.28647319597861E-21  -1.91017138187344E-09
      1.16270868391488E-16   6.66584768000000E-01   6.66584768000000E-01   0.00000000000000E+00   0.00000000000000E+00
      1.90983255732403E-09  -1.41186912511340E-20   1.90983255730991E-09   3.59363610363577E-16
      7.90649742222222E-01
      0.00000000000000E+00   0.00000000000000E+00   0.00000000000000E+00   0.00000000000000E+00   0.00000000000000E+00
      0.00000000000000E+00   0.00000000000000E+00  -4.86874176769578E-16   0.00000000000000E+00   0.00000000000000E+00
      0.00000000000000E+00   0.00000000000000E+00  -1.91467488757912E-09   4.77203476124866E-22  -1.91467488757865E-09
      1.16270846781020E-16   7.11584768000000E-01   7.11584768000000E-01   0.00000000000000E+00   0.00000000000000E+00
      1.91065898269028E-09   4.44923117250735E-21   1.91065898269473E-09   3.74769278689135E-16
      8.40649742222222E-01
      0.00000000000000E+00   0.00000000000000E+00   0.00000000000000E+00   0.00000000000000E+00   0.00000000000000E+00
      0.00000000000000E+00   0.00000000000000E+00  -5.02222399890467E-16   0.00000000000000E+00   0.00000000000000E+00
      0.00000000000000E+00   0.00000000000000E+00  -1.91910627221596E-09  -1.76259889412328E-20  -1.91910627223359E-09
      1.16270811047816E-16   7.56584768000000E-01   7.56584768000000E-01   0.00000000000000E+00   0.00000000000000E+00
      1.91517116992452E-09   4.37592234235543E-19   1.91517117036211E-09   3.90112366832545E-16
      8.90649742222222E-01
      0.00000000000000E+00   0.00000000000000E+00   0.00000000000000E+00   0.00000000000000E+00   0.00000000000000E+00
      0.00000000000000E+00   0.00000000000000E+00  -5.17512113794811E-16   0.00000000000000E+00   0.00000000000000E+00
      0.00000000000000E+00   0.00000000000000E+00  -1.92349188607638E-09  -5.14492239936921E-21  -1.92349188608152E-09
      1.16270760405157E-16   8.01584768000000E-01   8.01584768000000E-01   0.00000000000000E+00   0.00000000000000E+00
      1.93170877584794E-09  -3.34425797376822E-18   1.93170877250368E-09   4.05394831284729E-16
      9.40649742222223E-01
      0.00000000000000E+00   0.00000000000000E+00   0.00000000000000E+00   0.00000000000000E+00   0.00000000000000E+00
      0.00000000000000E+00   0.00000000000000E+00  -5.32745605711766E-16   0.00000000000000E+00   0.00000000000000E+00
      0.00000000000000E+00   0.00000000000000E+00  -1.92788528244519E-09  -2.06383774442958E-21  -1.92788528244725E-09
      1.16270690869816E-16   8.46584768000000E-01   8.46584768000000E-01   0.00000000000000E+00   0.00000000000000E+00
      1.93192897574886E-09  -6.20421355784061E-18   1.93192896954465E-09   4.20618404894727E-16
      9.90649742222223E-01
      0.00000000000000E+00   0.00000000000000E+00   0.00000000000000E+00   0.00000000000000E+00   0.00000000000000E+00
      0.00000000000000E+00   0.00000000000000E+00  -5.47925725249780E-16   0.00000000000000E+00   0.00000000000000E+00
      0.00000000000000E+00   0.00000000000000E+00  -1.93237980622332E-09  -1.60073870130187E-21  -1.93237980622492E-09
      1.16270593151816E-16   8.91584768000000E-01   8.91584768000000E-01   0.00000000000000E+00   0.00000000000000E+00
      1.93649006960116E-09   2.27820189097265E-17   1.93649009238317E-09   4.35784629460370E-16
      1.00000000000000E+00
      0.00000000000000E+00   0.00000000000000E+00   0.00000000000000E+00   0.00000000000000E+00   0.00000000000000E+00
      0.00000000000000E+00   0.00000000000000E+00  -5.50758919724460E-16   0.00000000000000E+00   0.00000000000000E+00
      0.00000000000000E+00   0.00000000000000E+00  -1.93324704404446E-09  -7.48380671248014E-21  -1.93324704405195E-09
      1.16270570025196E-16   9.00000000000000E-01   9.00000000000000E-01   0.00000000000000E+00   0.00000000000000E+00
      1.93585036263522E-09  -1.97230650909814E-17   1.93585034291215E-09   4.38614540130368E-16
}
