DF-ISE text

Info {
  version   = 1.0
  type      = xyplot
  datasets  = [
    "time"
    "gate OuterVoltage" "gate InnerVoltage" "gate QuasiFermiPotential" "gate DisplacementCurrent" "gate eCurrent"
    "gate hCurrent" "gate TotalCurrent" "gate Charge" "source OuterVoltage" "source InnerVoltage"
    "source QuasiFermiPotential" "source DisplacementCurrent" "source eCurrent" "source hCurrent" "source TotalCurrent"
    "source Charge" "drain OuterVoltage" "drain InnerVoltage" "drain QuasiFermiPotential" "drain DisplacementCurrent"
    "drain eCurrent" "drain hCurrent" "drain TotalCurrent" "drain Charge" ]
  functions = [
    Time
    OuterVoltage InnerVoltage QuasiFermiPotential DisplacementCurrent eCurrent
    hCurrent TotalCurrent Charge OuterVoltage InnerVoltage
    QuasiFermiPotential DisplacementCurrent eCurrent hCurrent TotalCurrent
    Charge OuterVoltage InnerVoltage QuasiFermiPotential DisplacementCurrent
    eCurrent hCurrent TotalCurrent Charge ]
}

Data {
      0.00000000000000E+00
      0.00000000000000E+00   0.00000000000000E+00   0.00000000000000E+00   0.00000000000000E+00   0.00000000000000E+00
      0.00000000000000E+00   0.00000000000000E+00   2.07607956930163E-16   0.00000000000000E+00   0.00000000000000E+00
      0.00000000000000E+00   0.00000000000000E+00   2.96573599458838E-19  -2.72885345155386E-18  -2.43227985209502E-18
     -1.04227169099012E-16   0.00000000000000E+00   0.00000000000000E+00   0.00000000000000E+00   0.00000000000000E+00
      6.85876821374160E-18  -7.56452015780658E-18  -7.05751944064983E-19  -1.04619835886418E-16
      0.00000000000000E+00
      0.00000000000000E+00   0.00000000000000E+00   0.00000000000000E+00   0.00000000000000E+00   0.00000000000000E+00
      0.00000000000000E+00   0.00000000000000E+00   2.32190668351168E-16   0.00000000000000E+00   0.00000000000000E+00
      0.00000000000000E+00   0.00000000000000E+00   2.48629907906300E-18  -3.57890891523415E-17  -3.33027900732785E-17
     -1.17216005716441E-16   0.00000000000000E+00   0.00000000000000E+00   0.00000000000000E+00   0.00000000000000E+00
      6.57339481988511E-18  -1.63025591181438E-17  -9.72916429825872E-18  -1.16795689122626E-16
      0.00000000000000E+00
      0.00000000000000E+00   0.00000000000000E+00   0.00000000000000E+00   0.00000000000000E+00   0.00000000000000E+00
      0.00000000000000E+00   0.00000000000000E+00   2.32190668229491E-16   0.00000000000000E+00   0.00000000000000E+00
      0.00000000000000E+00   0.00000000000000E+00   3.65334452435865E-18  -3.22259827224564E-18   4.30746252113014E-19
     -1.17216005683260E-16   0.00000000000000E+00   0.00000000000000E+00   0.00000000000000E+00   0.00000000000000E+00
      1.43140343478497E-18  -1.44489372355534E-18  -1.34902887703672E-20  -1.16795689102997E-16
      1.00000000000000E-03
      0.00000000000000E+00   0.00000000000000E+00   0.00000000000000E+00   0.00000000000000E+00   0.00000000000000E+00
      0.00000000000000E+00   0.00000000000000E+00   2.32454653728931E-16   0.00000000000000E+00   0.00000000000000E+00
      0.00000000000000E+00   0.00000000000000E+00   6.98130153490477E-10   9.51412420839020E-16   6.98131104902898E-10
     -1.17215752404602E-16  -7.00000000000000E-04  -7.00000000000000E-04   0.00000000000000E+00   0.00000000000000E+00
     -6.98133183594217E-10  -3.88523980035074E-12  -7.02018423394568E-10  -1.17058106600922E-16
      2.86666666666667E-03
      0.00000000000000E+00   0.00000000000000E+00   0.00000000000000E+00   0.00000000000000E+00   0.00000000000000E+00
      0.00000000000000E+00   0.00000000000000E+00   2.32947285671445E-16   0.00000000000000E+00   0.00000000000000E+00
      0.00000000000000E+00   0.00000000000000E+00   1.89841842730574E-09   2.91921194545878E-16   1.89841871922693E-09
     -1.17215279844382E-16  -2.00666666666667E-03  -2.00666666666667E-03   0.00000000000000E+00   0.00000000000000E+00
     -1.89841930484050E-09  -1.39366637474241E-14  -1.89843324150425E-09  -1.17547853826798E-16
      6.60000000000000E-03
      0.00000000000000E+00   0.00000000000000E+00   0.00000000000000E+00   0.00000000000000E+00   0.00000000000000E+00
      0.00000000000000E+00   0.00000000000000E+00   2.33932002650628E-16   0.00000000000000E+00   0.00000000000000E+00
      0.00000000000000E+00   0.00000000000000E+00   3.94269378948038E-09  -4.33665716658422E-16   3.94269335581466E-09
     -1.17214335678064E-16  -4.62000000000000E-03  -4.62000000000000E-03   0.00000000000000E+00   0.00000000000000E+00
     -3.94269539794674E-09  -2.19274795759948E-13  -3.94291467274250E-09  -1.18526962796989E-16
      1.40666666666667E-02
      0.00000000000000E+00   0.00000000000000E+00   0.00000000000000E+00   0.00000000000000E+00   0.00000000000000E+00
      0.00000000000000E+00   0.00000000000000E+00   2.35899279528540E-16   0.00000000000000E+00   0.00000000000000E+00
      0.00000000000000E+00   0.00000000000000E+00   6.90083542062157E-09  -1.64756937099271E-17   6.90083540414588E-09
     -1.17212451568436E-16  -9.84666666666667E-03  -9.84666666666667E-03   0.00000000000000E+00   0.00000000000000E+00
     -6.90083538806466E-09  -1.54541691513242E-17  -6.90083540351883E-09  -1.20483642421397E-16
      2.70088888888889E-02
      0.00000000000000E+00   0.00000000000000E+00   0.00000000000000E+00   0.00000000000000E+00   0.00000000000000E+00
      0.00000000000000E+00   0.00000000000000E+00   2.39302583636224E-16   0.00000000000000E+00   0.00000000000000E+00
      0.00000000000000E+00   0.00000000000000E+00   9.68222754027403E-09  -1.36985291366817E-17   9.68222752657550E-09
     -1.17209200532747E-16  -1.89062222222222E-02  -1.89062222222222E-02   0.00000000000000E+00   0.00000000000000E+00
     -9.68222765287510E-09   1.51439790299020E-16  -9.68222750143531E-09  -1.23870385772872E-16
      5.11677037037037E-02
      0.00000000000000E+00   0.00000000000000E+00   0.00000000000000E+00   0.00000000000000E+00   0.00000000000000E+00
      0.00000000000000E+00   0.00000000000000E+00   2.45633864455124E-16   0.00000000000000E+00   0.00000000000000E+00
      0.00000000000000E+00   0.00000000000000E+00   1.11294852541447E-08   2.92796667488158E-14   1.11295145338115E-08
     -1.17203184544361E-16  -3.58173925925926E-02  -3.58173925925926E-02   0.00000000000000E+00   0.00000000000000E+00
     -1.11295107865863E-08   4.01755606452063E-17  -1.11295107464108E-08  -1.30176079001918E-16
      9.62641580246914E-02
      0.00000000000000E+00   0.00000000000000E+00   0.00000000000000E+00   0.00000000000000E+00   0.00000000000000E+00
      0.00000000000000E+00   0.00000000000000E+00   2.57382635446325E-16   0.00000000000000E+00   0.00000000000000E+00
      0.00000000000000E+00   0.00000000000000E+00   1.07287774862137E-08   2.03150832382754E-15   1.07287795177220E-08
     -1.17192128501896E-16  -6.73849106172840E-02  -6.73849106172840E-02   0.00000000000000E+00   0.00000000000000E+00
     -1.07287797341354E-08   3.74746331615796E-17  -1.07287796966608E-08  -1.41891513153718E-16
      1.46264158024691E-01
      0.00000000000000E+00   0.00000000000000E+00   0.00000000000000E+00   0.00000000000000E+00   0.00000000000000E+00
      0.00000000000000E+00   0.00000000000000E+00   2.70312801593047E-16   0.00000000000000E+00   0.00000000000000E+00
      0.00000000000000E+00   0.00000000000000E+00   1.04726258612876E-08   3.44984693646529E-17   1.04726258957861E-08
     -1.17180101423157E-16  -1.02384910617284E-01  -1.02384910617284E-01   0.00000000000000E+00   0.00000000000000E+00
     -1.04726259437681E-08   4.83482426559473E-17  -1.04726258954199E-08  -1.54800128321663E-16
      1.96264158024691E-01
      0.00000000000000E+00   0.00000000000000E+00   0.00000000000000E+00   0.00000000000000E+00   0.00000000000000E+00
      0.00000000000000E+00   0.00000000000000E+00   2.83151911990770E-16   0.00000000000000E+00   0.00000000000000E+00
      0.00000000000000E+00   0.00000000000000E+00   1.07618658284937E-08   1.23763308742199E-14   1.07618782048246E-08
     -1.17168283229221E-16  -1.37384910617284E-01  -1.37384910617284E-01   0.00000000000000E+00   0.00000000000000E+00
     -1.07618782574093E-08  -2.56066668270330E-16  -1.07618785134760E-08  -1.67628349429013E-16
      2.21264158024691E-01
      0.00000000000000E+00   0.00000000000000E+00   0.00000000000000E+00   0.00000000000000E+00   0.00000000000000E+00
      0.00000000000000E+00   0.00000000000000E+00   2.89539937831634E-16   0.00000000000000E+00   0.00000000000000E+00
      0.00000000000000E+00   0.00000000000000E+00   1.10116555761719E-08  -1.38501935488192E-16   1.10116554376699E-08
     -1.17162444312389E-16  -1.54884910617284E-01  -1.54884910617284E-01   0.00000000000000E+00   0.00000000000000E+00
     -1.10116568164293E-08   8.33598088306827E-16  -1.10116559828312E-08  -1.74013738540951E-16
      2.61264158024691E-01
      0.00000000000000E+00   0.00000000000000E+00   0.00000000000000E+00   0.00000000000000E+00   0.00000000000000E+00
      0.00000000000000E+00   0.00000000000000E+00   2.99719850803474E-16   0.00000000000000E+00   0.00000000000000E+00
      0.00000000000000E+00   0.00000000000000E+00   1.14818445143939E-08  -1.13895685818761E-16   1.14818444004982E-08
     -1.17153191198303E-16  -1.82884910617284E-01  -1.82884910617284E-01   0.00000000000000E+00   0.00000000000000E+00
     -1.14818445303935E-08   1.30039532272396E-16  -1.14818444003539E-08  -1.84192281101202E-16
      3.03930824691358E-01
      0.00000000000000E+00   0.00000000000000E+00   0.00000000000000E+00   0.00000000000000E+00   0.00000000000000E+00
      0.00000000000000E+00   0.00000000000000E+00   3.10525948968966E-16   0.00000000000000E+00   0.00000000000000E+00
      0.00000000000000E+00   0.00000000000000E+00   1.20301086222309E-08  -2.05066593120406E-17   1.20301086017242E-08
     -1.17143433553456E-16  -2.12751577283951E-01  -2.12751577283951E-01   0.00000000000000E+00   0.00000000000000E+00
     -1.20301086358696E-08   3.46882247495032E-17  -1.20301086011814E-08  -1.94999833390095E-16
      3.53930824691358E-01
      0.00000000000000E+00   0.00000000000000E+00   0.00000000000000E+00   0.00000000000000E+00   0.00000000000000E+00
      0.00000000000000E+00   0.00000000000000E+00   3.23124709418646E-16   0.00000000000000E+00   0.00000000000000E+00
      0.00000000000000E+00   0.00000000000000E+00   1.26829263657714E-08   1.69911448988218E-18   1.26829263674705E-08
     -1.17132134586593E-16  -2.47751577283951E-01  -2.47751577283951E-01   0.00000000000000E+00   0.00000000000000E+00
     -1.26829263948230E-08   2.74536059926794E-17  -1.26829263673694E-08  -2.07603013070559E-16
      4.03930824691358E-01
      0.00000000000000E+00   0.00000000000000E+00   0.00000000000000E+00   0.00000000000000E+00   0.00000000000000E+00
      0.00000000000000E+00   0.00000000000000E+00   3.35658019423666E-16   0.00000000000000E+00   0.00000000000000E+00
      0.00000000000000E+00   0.00000000000000E+00   1.33126382557032E-08  -5.34291365760102E-17   1.33126382022741E-08
     -1.17120970624037E-16  -2.82751577283951E-01  -2.82751577283951E-01   0.00000000000000E+00   0.00000000000000E+00
     -1.33126381686002E-08   7.44349389387235E-18  -1.33126381611567E-08  -2.20142772782360E-16
      4.28930824691358E-01
      0.00000000000000E+00   0.00000000000000E+00   0.00000000000000E+00   0.00000000000000E+00   0.00000000000000E+00
      0.00000000000000E+00   0.00000000000000E+00   3.41901374562099E-16   0.00000000000000E+00   0.00000000000000E+00
      0.00000000000000E+00   0.00000000000000E+00   1.36156973354304E-08   4.42951346303982E-16   1.36156977783818E-08
     -1.17115436011289E-16  -3.00251577283951E-01  -3.00251577283951E-01   0.00000000000000E+00   0.00000000000000E+00
     -1.36156975734230E-08  -7.14763811605121E-15  -1.36157047210611E-08  -2.26389901779158E-16
      4.65597491358025E-01
      0.00000000000000E+00   0.00000000000000E+00   0.00000000000000E+00   0.00000000000000E+00   0.00000000000000E+00
      0.00000000000000E+00   0.00000000000000E+00   3.51031389151451E-16   0.00000000000000E+00   0.00000000000000E+00
      0.00000000000000E+00   0.00000000000000E+00   1.40354057027643E-08  -3.73297431456793E-16   1.40354053294669E-08
     -1.17107372579974E-16  -3.25918243950617E-01  -3.25918243950617E-01   0.00000000000000E+00   0.00000000000000E+00
     -1.40354052309210E-08   2.07798124943192E-14  -1.40353844511085E-08  -2.35525947800588E-16
      5.15597491358025E-01
      0.00000000000000E+00   0.00000000000000E+00   0.00000000000000E+00   0.00000000000000E+00   0.00000000000000E+00
      0.00000000000000E+00   0.00000000000000E+00   3.63431897241367E-16   0.00000000000000E+00   0.00000000000000E+00
      0.00000000000000E+00   0.00000000000000E+00   1.45838689286412E-08  -2.11951196838816E-15   1.45838668091292E-08
     -1.17096475344784E-16  -3.60918243950617E-01  -3.60918243950617E-01   0.00000000000000E+00   0.00000000000000E+00
     -1.45838670188561E-08  -1.07482727087510E-13  -1.45839745015832E-08  -2.47935395984817E-16
      5.65597491358025E-01
      0.00000000000000E+00   0.00000000000000E+00   0.00000000000000E+00   0.00000000000000E+00   0.00000000000000E+00
      0.00000000000000E+00   0.00000000000000E+00   3.75777894038263E-16   0.00000000000000E+00   0.00000000000000E+00
      0.00000000000000E+00   0.00000000000000E+00   1.50943980456351E-08  -5.84428061043375E-14   1.50943396028290E-08
     -1.17085684884137E-16  -3.95918243950617E-01  -3.95918243950617E-01   0.00000000000000E+00   0.00000000000000E+00
     -1.50943374031488E-08  -3.53785721854672E-14  -1.50943727817210E-08  -2.60290907557098E-16
      5.90597491358025E-01
      0.00000000000000E+00   0.00000000000000E+00   0.00000000000000E+00   0.00000000000000E+00   0.00000000000000E+00
      0.00000000000000E+00   0.00000000000000E+00   3.81931260087328E-16   0.00000000000000E+00   0.00000000000000E+00
      0.00000000000000E+00   0.00000000000000E+00   1.53393025648815E-08   4.26494570006357E-17   1.53393026075310E-08
     -1.17080327687955E-16  -4.13418243950617E-01  -4.13418243950617E-01   0.00000000000000E+00   0.00000000000000E+00
     -1.53393022249857E-08  -7.33936338343456E-14  -1.53393756186195E-08  -2.66449186140176E-16
      6.15597491358025E-01
      0.00000000000000E+00   0.00000000000000E+00   0.00000000000000E+00   0.00000000000000E+00   0.00000000000000E+00
      0.00000000000000E+00   0.00000000000000E+00   3.88071935498052E-16   0.00000000000000E+00   0.00000000000000E+00
      0.00000000000000E+00   0.00000000000000E+00   1.55793082715419E-08   1.48655158316825E-15   1.55793097580935E-08
     -1.17074994854156E-16  -4.30918243950617E-01  -4.30918243950617E-01   0.00000000000000E+00   0.00000000000000E+00
     -1.55793091065608E-08  -9.05562435112942E-14  -1.55793996628043E-08  -2.72594851417515E-16
      6.45597491358025E-01
      0.00000000000000E+00   0.00000000000000E+00   0.00000000000000E+00   0.00000000000000E+00   0.00000000000000E+00
      0.00000000000000E+00   0.00000000000000E+00   3.95424386678389E-16   0.00000000000000E+00   0.00000000000000E+00
      0.00000000000000E+00   0.00000000000000E+00   1.58664227122573E-08   6.06061140585710E-15   1.58664287728687E-08
     -1.17068626637500E-16  -4.51918243950617E-01  -4.51918243950617E-01   0.00000000000000E+00   0.00000000000000E+00
     -1.58664275857659E-08  -1.09633218844087E-13  -1.58665372189847E-08  -2.79953368719706E-16
      6.81597491358025E-01
      0.00000000000000E+00   0.00000000000000E+00   0.00000000000000E+00   0.00000000000000E+00   0.00000000000000E+00
      0.00000000000000E+00   0.00000000000000E+00   4.04224359945224E-16   0.00000000000000E+00   0.00000000000000E+00
      0.00000000000000E+00   0.00000000000000E+00   1.62048454606746E-08   1.84890304147010E-13   1.62050303509787E-08
     -1.17061028226468E-16  -4.77118243950617E-01  -4.77118243950617E-01   0.00000000000000E+00   0.00000000000000E+00
     -1.62050325664393E-08  -1.28185695529127E-13  -1.62051607521348E-08  -2.88760711865036E-16
      7.17597491358025E-01
      0.00000000000000E+00   0.00000000000000E+00   0.00000000000000E+00   0.00000000000000E+00   0.00000000000000E+00
      0.00000000000000E+00   0.00000000000000E+00   4.12999964462659E-16   0.00000000000000E+00   0.00000000000000E+00
      0.00000000000000E+00   0.00000000000000E+00   1.65406997273534E-08   8.79836253565388E-14   1.65407877109788E-08
     -1.17053475515090E-16  -5.02318243950617E-01  -5.02318243950617E-01   0.00000000000000E+00   0.00000000000000E+00
     -1.65407896072359E-08  -1.09637647103447E-13  -1.65408992448830E-08  -2.97543754655812E-16
      7.55997491358025E-01
      0.00000000000000E+00   0.00000000000000E+00   0.00000000000000E+00   0.00000000000000E+00   0.00000000000000E+00
      0.00000000000000E+00   0.00000000000000E+00   4.22334509998048E-16   0.00000000000000E+00   0.00000000000000E+00
      0.00000000000000E+00   0.00000000000000E+00   1.69045856085354E-08  -2.63725817725447E-14   1.69045592359536E-08
     -1.17045467781975E-16  -5.29198243950617E-01  -5.29198243950617E-01   0.00000000000000E+00   0.00000000000000E+00
     -1.69045586377876E-08  -1.54405812645622E-13  -1.69047130436002E-08  -3.06886282433236E-16
      7.79037491358025E-01
      0.00000000000000E+00   0.00000000000000E+00   0.00000000000000E+00   0.00000000000000E+00   0.00000000000000E+00
      0.00000000000000E+00   0.00000000000000E+00   4.27922610186367E-16   0.00000000000000E+00   0.00000000000000E+00
      0.00000000000000E+00   0.00000000000000E+00   1.71227143821264E-08   3.36590050186032E-14   1.71227480411314E-08
     -1.17040686417673E-16  -5.45326243950617E-01  -5.45326243950617E-01   0.00000000000000E+00   0.00000000000000E+00
     -1.71227488819267E-08  -1.51158768231220E-13  -1.71229000406949E-08  -3.12479189587485E-16
      8.02077491358025E-01
      0.00000000000000E+00   0.00000000000000E+00   0.00000000000000E+00   0.00000000000000E+00   0.00000000000000E+00
      0.00000000000000E+00   0.00000000000000E+00   4.33501430399593E-16   0.00000000000000E+00   0.00000000000000E+00
      0.00000000000000E+00   0.00000000000000E+00   1.73418322597147E-08   1.74465659601312E-15   1.73418340043713E-08
     -1.17035922037934E-16  -5.61454243950617E-01  -5.61454243950617E-01   0.00000000000000E+00   0.00000000000000E+00
     -1.73418355680307E-08  -3.06412044638980E-13  -1.73421419800754E-08  -3.18062824939979E-16
      8.26653491358025E-01
      0.00000000000000E+00   0.00000000000000E+00   0.00000000000000E+00   0.00000000000000E+00   0.00000000000000E+00
      0.00000000000000E+00   0.00000000000000E+00   4.39442112507657E-16   0.00000000000000E+00   0.00000000000000E+00
      0.00000000000000E+00   0.00000000000000E+00   1.75775948620766E-08   2.59182097988273E-15   1.75775974538976E-08
     -1.17030858327493E-16  -5.78657443950618E-01  -5.78657443950618E-01   0.00000000000000E+00   0.00000000000000E+00
     -1.75775972707350E-08   3.63112778715854E-13  -1.75772341579563E-08  -3.24008646423338E-16
      8.69251891358025E-01
      0.00000000000000E+00   0.00000000000000E+00   0.00000000000000E+00   0.00000000000000E+00   0.00000000000000E+00
      0.00000000000000E+00   0.00000000000000E+00   4.49715185935689E-16   0.00000000000000E+00   0.00000000000000E+00
      0.00000000000000E+00   0.00000000000000E+00   1.79924350560653E-08  -1.42937184412347E-16   1.79924349131281E-08
     -1.17022124727279E-16  -6.08476323950618E-01  -6.08476323950618E-01   0.00000000000000E+00   0.00000000000000E+00
     -1.79924345400255E-08  -1.54939998477154E-13  -1.79925894800240E-08  -3.34290627517771E-16
      8.94251891358025E-01
      0.00000000000000E+00   0.00000000000000E+00   0.00000000000000E+00   0.00000000000000E+00   0.00000000000000E+00
      0.00000000000000E+00   0.00000000000000E+00   4.55730247784552E-16   0.00000000000000E+00   0.00000000000000E+00
      0.00000000000000E+00   0.00000000000000E+00   1.82384760792639E-08  -1.17290155095264E-17   1.82384760675349E-08
     -1.17017024171662E-16  -6.25976323950618E-01  -6.25976323950618E-01   0.00000000000000E+00   0.00000000000000E+00
     -1.82384768428380E-08  -3.36323938327157E-13  -1.82388131667764E-08  -3.40310914395532E-16
      9.19251891358025E-01
      0.00000000000000E+00   0.00000000000000E+00   0.00000000000000E+00   0.00000000000000E+00   0.00000000000000E+00
      0.00000000000000E+00   0.00000000000000E+00   4.61735176376846E-16   0.00000000000000E+00   0.00000000000000E+00
      0.00000000000000E+00   0.00000000000000E+00   1.84870318072110E-08  -9.58233604227132E-17   1.84870317113876E-08
     -1.17011941593473E-16  -6.43476323950618E-01  -6.43476323950618E-01   0.00000000000000E+00   0.00000000000000E+00
     -1.84870328314300E-08  -3.92559458421779E-13  -1.84874253908884E-08  -3.46321064264562E-16
      9.44251891358025E-01
      0.00000000000000E+00   0.00000000000000E+00   0.00000000000000E+00   0.00000000000000E+00   0.00000000000000E+00
      0.00000000000000E+00   0.00000000000000E+00   4.67730133498077E-16   0.00000000000000E+00   0.00000000000000E+00
      0.00000000000000E+00   0.00000000000000E+00   1.87377619336165E-08   6.32360852794851E-16   1.87377625659774E-08
     -1.17006876554217E-16  -6.60976323950618E-01  -6.60976323950618E-01   0.00000000000000E+00   0.00000000000000E+00
     -1.87377658902342E-08  -2.30230643663972E-13  -1.87379961208778E-08  -3.52321234069887E-16
      9.90918558024692E-01
      0.00000000000000E+00   0.00000000000000E+00   0.00000000000000E+00   0.00000000000000E+00   0.00000000000000E+00
      0.00000000000000E+00   0.00000000000000E+00   4.78894509056191E-16   0.00000000000000E+00   0.00000000000000E+00
      0.00000000000000E+00   0.00000000000000E+00   1.92095790024392E-08   2.28834612981859E-14   1.92096018859005E-08
     -1.16997467416049E-16  -6.93642990617284E-01  -6.93642990617284E-01   0.00000000000000E+00   0.00000000000000E+00
     -1.92096027619122E-08   4.84054581683010E-13  -1.92091187073305E-08  -3.63495309390039E-16
      1.00000000000000E+00
      0.00000000000000E+00   0.00000000000000E+00   0.00000000000000E+00   0.00000000000000E+00   0.00000000000000E+00
      0.00000000000000E+00   0.00000000000000E+00   4.81063218438452E-16   0.00000000000000E+00   0.00000000000000E+00
      0.00000000000000E+00   0.00000000000000E+00   1.93019186315244E-08   2.33471899295562E-15   1.93019209662434E-08
     -1.16995643097687E-16  -7.00000000000000E-01  -7.00000000000000E-01   0.00000000000000E+00   0.00000000000000E+00
     -1.93019176403114E-08  -2.74003481715418E-14  -1.93019450406596E-08  -3.65665901289860E-16
}
