DF-ISE text

Info {
  version   = 1.0
  type      = xyplot
  datasets  = [
    "time"
    "gate OuterVoltage" "gate InnerVoltage" "gate QuasiFermiPotential" "gate DisplacementCurrent" "gate eCurrent"
    "gate hCurrent" "gate TotalCurrent" "gate Charge" "source OuterVoltage" "source InnerVoltage"
    "source QuasiFermiPotential" "source DisplacementCurrent" "source eCurrent" "source hCurrent" "source TotalCurrent"
    "source Charge" "drain OuterVoltage" "drain InnerVoltage" "drain QuasiFermiPotential" "drain DisplacementCurrent"
    "drain eCurrent" "drain hCurrent" "drain TotalCurrent" "drain Charge" ]
  functions = [
    Time
    OuterVoltage InnerVoltage QuasiFermiPotential DisplacementCurrent eCurrent
    hCurrent TotalCurrent Charge OuterVoltage InnerVoltage
    QuasiFermiPotential DisplacementCurrent eCurrent hCurrent TotalCurrent
    Charge OuterVoltage InnerVoltage QuasiFermiPotential DisplacementCurrent
    eCurrent hCurrent TotalCurrent Charge ]
}

Data {
      0.00000000000000E+00
      0.00000000000000E+00   0.00000000000000E+00   0.00000000000000E+00   0.00000000000000E+00   0.00000000000000E+00
      0.00000000000000E+00   0.00000000000000E+00   2.07607956930163E-16   0.00000000000000E+00   0.00000000000000E+00
      0.00000000000000E+00   0.00000000000000E+00   2.96573599458838E-19  -2.72604182074621E-18  -2.42946822128738E-18
     -1.04227169099012E-16   0.00000000000000E+00   0.00000000000000E+00   0.00000000000000E+00   0.00000000000000E+00
      6.85876821374160E-18  -7.56600594321853E-18  -7.07237729476929E-19  -1.04619835886418E-16
      0.00000000000000E+00
      0.00000000000000E+00   0.00000000000000E+00   0.00000000000000E+00   0.00000000000000E+00   0.00000000000000E+00
      0.00000000000000E+00   0.00000000000000E+00   2.07607930225805E-16   0.00000000000000E+00   0.00000000000000E+00
      0.00000000000000E+00   0.00000000000000E+00  -2.36121124849232E-17   1.58526025374362E-17  -7.75950994748693E-18
     -1.04227156637195E-16   0.00000000000000E+00   0.00000000000000E+00   0.00000000000000E+00   0.00000000000000E+00
     -9.00212746681044E-17   8.52560973209729E-17  -4.76517734713143E-18  -1.04619821649822E-16
      0.00000000000000E+00
      0.00000000000000E+00   0.00000000000000E+00   0.00000000000000E+00   0.00000000000000E+00   0.00000000000000E+00
      0.00000000000000E+00   0.00000000000000E+00   2.07607930225789E-16   0.00000000000000E+00   0.00000000000000E+00
      0.00000000000000E+00   0.00000000000000E+00   2.59847639302411E-17  -2.59656185159887E-17   1.91454142524200E-20
     -1.04227156637188E-16   0.00000000000000E+00   0.00000000000000E+00   0.00000000000000E+00   0.00000000000000E+00
     -6.02999626566406E-17   6.02848987106640E-17  -1.50639459766054E-20  -1.04619821649813E-16
      1.00000000000000E-03
      0.00000000000000E+00   0.00000000000000E+00   0.00000000000000E+00   0.00000000000000E+00   0.00000000000000E+00
      0.00000000000000E+00   0.00000000000000E+00   2.07906166668249E-16   0.00000000000000E+00   0.00000000000000E+00
      0.00000000000000E+00   0.00000000000000E+00   1.19436700261104E-09  -3.85106623047745E-17   1.19436696410038E-09
     -1.04226879363376E-16  -7.80000000000000E-04  -7.80000000000000E-04   0.00000000000000E+00   0.00000000000000E+00
     -1.19436613653161E-09   4.23266189529136E-14  -1.19432380991266E-09  -1.04917764750970E-16
      2.86666666666667E-03
      0.00000000000000E+00   0.00000000000000E+00   0.00000000000000E+00   0.00000000000000E+00   0.00000000000000E+00
      0.00000000000000E+00   0.00000000000000E+00   2.08462664253475E-16   0.00000000000000E+00   0.00000000000000E+00
      0.00000000000000E+00   0.00000000000000E+00   3.27476046459155E-09  -9.15775410065833E-16   3.27475954881614E-09
     -1.04226362217885E-16  -2.23600000000000E-03  -2.23600000000000E-03   0.00000000000000E+00   0.00000000000000E+00
     -3.27476010825237E-09  -2.30492400641873E-15  -3.27476241317638E-09  -1.05473744882559E-16
      6.60000000000000E-03
      0.00000000000000E+00   0.00000000000000E+00   0.00000000000000E+00   0.00000000000000E+00   0.00000000000000E+00
      0.00000000000000E+00   0.00000000000000E+00   2.09574845563072E-16   0.00000000000000E+00   0.00000000000000E+00
      0.00000000000000E+00   0.00000000000000E+00   6.85604262076883E-09  -1.41399913868054E-14   6.85602848077744E-09
     -1.04225329594119E-16  -5.14800000000000E-03  -5.14800000000000E-03   0.00000000000000E+00   0.00000000000000E+00
     -6.85604226364147E-09  -2.78418868135168E-14  -6.85607010552828E-09  -1.06585004246659E-16
      1.40666666666667E-02
      0.00000000000000E+00   0.00000000000000E+00   0.00000000000000E+00   0.00000000000000E+00   0.00000000000000E+00
      0.00000000000000E+00   0.00000000000000E+00   2.11796016070924E-16   0.00000000000000E+00   0.00000000000000E+00
      0.00000000000000E+00   0.00000000000000E+00   1.20094720877044E-08  -2.49391677586710E-17   1.20094720627652E-08
     -1.04223271088934E-16  -1.09720000000000E-02  -1.09720000000000E-02   0.00000000000000E+00   0.00000000000000E+00
     -1.20094721402001E-08   8.11873235198520E-17  -1.20094720590128E-08  -1.08804747707206E-16
      2.80044444444444E-02
      0.00000000000000E+00   0.00000000000000E+00   0.00000000000000E+00   0.00000000000000E+00   0.00000000000000E+00
      0.00000000000000E+00   0.00000000000000E+00   2.15931221815141E-16   0.00000000000000E+00   0.00000000000000E+00
      0.00000000000000E+00   0.00000000000000E+00   1.68122753650715E-08   1.49810675023616E-13   1.68124251757465E-08
     -1.04219452995409E-16  -2.18434666666667E-02  -2.18434666666667E-02   0.00000000000000E+00   0.00000000000000E+00
     -1.68123753780151E-08  -6.34507368284766E-14  -1.68124388287520E-08  -1.12938562733924E-16
      5.40216296296296E-02
      0.00000000000000E+00   0.00000000000000E+00   0.00000000000000E+00   0.00000000000000E+00   0.00000000000000E+00
      0.00000000000000E+00   0.00000000000000E+00   2.23614444286369E-16   0.00000000000000E+00   0.00000000000000E+00
      0.00000000000000E+00   0.00000000000000E+00   1.90012063990137E-08   3.58789445830872E-19   1.90012063993725E-08
     -1.04212406039645E-16  -4.21368711111111E-02  -4.21368711111111E-02   0.00000000000000E+00   0.00000000000000E+00
     -1.90012064751153E-08   7.57394435445484E-17  -1.90012063993758E-08  -1.20622464135080E-16
      9.56491259259259E-02
      0.00000000000000E+00   0.00000000000000E+00   0.00000000000000E+00   0.00000000000000E+00   0.00000000000000E+00
      0.00000000000000E+00   0.00000000000000E+00   2.35820049349563E-16   0.00000000000000E+00   0.00000000000000E+00
      0.00000000000000E+00   0.00000000000000E+00   1.98459064756376E-08  -4.79633159502824E-16   1.98459059960044E-08
     -1.04201311229192E-16  -7.46063182222222E-02  -7.46063182222222E-02   0.00000000000000E+00   0.00000000000000E+00
     -1.98459031117189E-08  -2.88398414030681E-15  -1.98459059957031E-08  -1.32834195891357E-16
      1.45649125925926E-01
      0.00000000000000E+00   0.00000000000000E+00   0.00000000000000E+00   0.00000000000000E+00   0.00000000000000E+00
      0.00000000000000E+00   0.00000000000000E+00   2.50354923010400E-16   0.00000000000000E+00   0.00000000000000E+00
      0.00000000000000E+00   0.00000000000000E+00   2.07522638688753E-08   1.74248882145920E-15   2.07522656113641E-08
     -1.04188225917343E-16  -1.13606318222222E-01  -1.13606318222222E-01   0.00000000000000E+00   0.00000000000000E+00
     -2.07520126460734E-08  -2.53051750916281E-13  -2.07522656978243E-08  -1.47379935670297E-16
      1.95649125925926E-01
      0.00000000000000E+00   0.00000000000000E+00   0.00000000000000E+00   0.00000000000000E+00   0.00000000000000E+00
      0.00000000000000E+00   0.00000000000000E+00   2.64768902303213E-16   0.00000000000000E+00   0.00000000000000E+00
      0.00000000000000E+00   0.00000000000000E+00   2.16308454240281E-08  -1.40604384129791E-16   2.16308452834237E-08
     -1.04175365190167E-16  -1.52606318222222E-01  -1.52606318222222E-01   0.00000000000000E+00   0.00000000000000E+00
     -2.16308488863183E-08   3.61475387038355E-15  -2.16308452715645E-08  -1.61806133430829E-16
      2.45649125925926E-01
      0.00000000000000E+00   0.00000000000000E+00   0.00000000000000E+00   0.00000000000000E+00   0.00000000000000E+00
      0.00000000000000E+00   0.00000000000000E+00   2.79075057897764E-16   0.00000000000000E+00   0.00000000000000E+00
      0.00000000000000E+00   0.00000000000000E+00   2.24869569525896E-08   2.50288798651287E-15   2.24869594554776E-08
     -1.04162700656331E-16  -1.91606318222222E-01  -1.91606318222222E-01   0.00000000000000E+00   0.00000000000000E+00
     -2.24868430782588E-08  -1.16131012127550E-13  -2.24869592092709E-08  -1.76124893230909E-16
      2.95649125925926E-01
      0.00000000000000E+00   0.00000000000000E+00   0.00000000000000E+00   0.00000000000000E+00   0.00000000000000E+00
      0.00000000000000E+00   0.00000000000000E+00   2.93283694319507E-16   0.00000000000000E+00   0.00000000000000E+00
      0.00000000000000E+00   0.00000000000000E+00   2.33245578863095E-08  -1.12243754861257E-17   2.33245578750851E-08
     -1.04150210726062E-16  -2.30606318222222E-01  -2.30606318222222E-01   0.00000000000000E+00   0.00000000000000E+00
     -2.33245578708357E-08   2.49042972017421E-17  -2.33245578459314E-08  -1.90346171934324E-16
      3.20649125925926E-01
      0.00000000000000E+00   0.00000000000000E+00   0.00000000000000E+00   0.00000000000000E+00   0.00000000000000E+00
      0.00000000000000E+00   0.00000000000000E+00   3.00354117824998E-16   0.00000000000000E+00   0.00000000000000E+00
      0.00000000000000E+00   0.00000000000000E+00   2.37373936009450E-08  -1.52498326824336E-15   2.37373920759617E-08
     -1.04144025735951E-16  -2.50106318222222E-01  -2.50106318222222E-01   0.00000000000000E+00   0.00000000000000E+00
     -2.37373977348466E-08   3.84420903960394E-13  -2.37370133139427E-08  -1.97422887665265E-16
      3.57315792592593E-01
      0.00000000000000E+00   0.00000000000000E+00   0.00000000000000E+00   0.00000000000000E+00   0.00000000000000E+00
      0.00000000000000E+00   0.00000000000000E+00   3.10685660736730E-16   0.00000000000000E+00   0.00000000000000E+00
      0.00000000000000E+00   0.00000000000000E+00   2.43365557549540E-08  -1.32914804647563E-16   2.43365556220392E-08
     -1.04135021739042E-16  -2.78706318222222E-01  -2.78706318222222E-01   0.00000000000000E+00   0.00000000000000E+00
     -2.43365583775492E-08   1.20055979985429E-14  -2.43365463719512E-08  -2.07763604542554E-16
      4.07315792592593E-01
      0.00000000000000E+00   0.00000000000000E+00   0.00000000000000E+00   0.00000000000000E+00   0.00000000000000E+00
      0.00000000000000E+00   0.00000000000000E+00   3.24704603505436E-16   0.00000000000000E+00   0.00000000000000E+00
      0.00000000000000E+00   0.00000000000000E+00   2.51428629392845E-08  -3.13919803084967E-15   2.51428598000865E-08
     -1.04122864336700E-16  -3.17706318222222E-01  -3.17706318222222E-01   0.00000000000000E+00   0.00000000000000E+00
     -2.51428587208337E-08   3.78374378615522E-15  -2.51428549370899E-08  -2.21794911081851E-16
      4.57315792592593E-01
      0.00000000000000E+00   0.00000000000000E+00   0.00000000000000E+00   0.00000000000000E+00   0.00000000000000E+00
      0.00000000000000E+00   0.00000000000000E+00   3.38648367628256E-16   0.00000000000000E+00   0.00000000000000E+00
      0.00000000000000E+00   0.00000000000000E+00   2.59384332062379E-08   2.30417097011777E-17   2.59384332292796E-08
     -1.04110836200185E-16  -3.56706318222222E-01  -3.56706318222222E-01   0.00000000000000E+00   0.00000000000000E+00
     -2.59384333043531E-08   7.51062009816939E-17  -2.59384332292469E-08  -2.35750906407275E-16
      5.07315792592593E-01
      0.00000000000000E+00   0.00000000000000E+00   0.00000000000000E+00   0.00000000000000E+00   0.00000000000000E+00
      0.00000000000000E+00   0.00000000000000E+00   3.52521735277660E-16   0.00000000000000E+00   0.00000000000000E+00
      0.00000000000000E+00   0.00000000000000E+00   2.67247515259591E-08  -8.51006185335998E-15   2.67247430158972E-08
     -1.04098927800288E-16  -3.95706318222222E-01  -3.95706318222222E-01   0.00000000000000E+00   0.00000000000000E+00
     -2.67247329748716E-08   1.97880391631994E-10  -2.65268525832396E-08  -2.49636394704011E-16
      5.57315792592593E-01
      0.00000000000000E+00   0.00000000000000E+00   0.00000000000000E+00   0.00000000000000E+00   0.00000000000000E+00
      0.00000000000000E+00   0.00000000000000E+00   3.66328823993986E-16   0.00000000000000E+00   0.00000000000000E+00
      0.00000000000000E+00   0.00000000000000E+00   2.75032068217123E-08   1.64137038756517E-17   2.75032068381260E-08
     -1.04087130963439E-16  -4.34706318222222E-01  -4.34706318222222E-01   0.00000000000000E+00   0.00000000000000E+00
     -2.75032069136983E-08   8.42081034047205E-17  -2.75032068294902E-08  -2.63455493882213E-16
      6.07315792592593E-01
      0.00000000000000E+00   0.00000000000000E+00   0.00000000000000E+00   0.00000000000000E+00   0.00000000000000E+00
      0.00000000000000E+00   0.00000000000000E+00   3.80073208068815E-16   0.00000000000000E+00   0.00000000000000E+00
      0.00000000000000E+00   0.00000000000000E+00   2.82747338055808E-08   5.82846799918861E-16   2.82747343884276E-08
     -1.04075438615568E-16  -4.73706318222222E-01  -4.73706318222222E-01   0.00000000000000E+00   0.00000000000000E+00
     -2.82747322935988E-08  -2.19791029088484E-12  -2.82769302038897E-08  -2.77211783046296E-16
      6.57315792592593E-01
      0.00000000000000E+00   0.00000000000000E+00   0.00000000000000E+00   0.00000000000000E+00   0.00000000000000E+00
      0.00000000000000E+00   0.00000000000000E+00   3.93758017306066E-16   0.00000000000000E+00   0.00000000000000E+00
      0.00000000000000E+00   0.00000000000000E+00   2.90402832873907E-08  -2.86926429545702E-16   2.90402830004642E-08
     -1.04063844547154E-16  -5.12706318222222E-01  -5.12706318222222E-01   0.00000000000000E+00   0.00000000000000E+00
     -2.90402863537934E-08   4.02870897090899E-15  -2.90402823250844E-08  -2.90908393497720E-16
      7.07315792592593E-01
      0.00000000000000E+00   0.00000000000000E+00   0.00000000000000E+00   0.00000000000000E+00   0.00000000000000E+00
      0.00000000000000E+00   0.00000000000000E+00   4.07385999739670E-16   0.00000000000000E+00   0.00000000000000E+00
      0.00000000000000E+00   0.00000000000000E+00   2.98006152636450E-08   4.90252546281916E-15   2.98006201661705E-08
     -1.04052343300954E-16  -5.51706318222222E-01  -5.51706318222222E-01   0.00000000000000E+00   0.00000000000000E+00
     -2.98006165273120E-08  -1.96420231526325E-11  -2.98202585504647E-08  -3.04548082714811E-16
      7.57315792592593E-01
      0.00000000000000E+00   0.00000000000000E+00   0.00000000000000E+00   0.00000000000000E+00   0.00000000000000E+00
      0.00000000000000E+00   0.00000000000000E+00   4.20959584265968E-16   0.00000000000000E+00   0.00000000000000E+00
      0.00000000000000E+00   0.00000000000000E+00   3.05564419710461E-08   6.02282875396275E-17   3.05564420312744E-08
     -1.04040930029772E-16  -5.90706318222222E-01  -5.90706318222222E-01   0.00000000000000E+00   0.00000000000000E+00
     -3.05564418836475E-08  -1.40299055107308E-16  -3.05564420239466E-08  -3.18133286117386E-16
      8.07315792592593E-01
      0.00000000000000E+00   0.00000000000000E+00   0.00000000000000E+00   0.00000000000000E+00   0.00000000000000E+00
      0.00000000000000E+00   0.00000000000000E+00   4.34480924876833E-16   0.00000000000000E+00   0.00000000000000E+00
      0.00000000000000E+00   0.00000000000000E+00   3.13083075550110E-08   6.14508711840830E-18   3.13083075611561E-08
     -1.04029600415687E-16  -6.29706318222222E-01  -6.29706318222222E-01   0.00000000000000E+00   0.00000000000000E+00
     -3.13083076050981E-08   4.39782778977447E-17  -3.13083075611198E-08  -3.31666162474152E-16
      8.57315792592593E-01
      0.00000000000000E+00   0.00000000000000E+00   0.00000000000000E+00   0.00000000000000E+00   0.00000000000000E+00
      0.00000000000000E+00   0.00000000000000E+00   4.47951936593402E-16   0.00000000000000E+00   0.00000000000000E+00
      0.00000000000000E+00   0.00000000000000E+00   3.20567364903731E-08   1.52170071346668E-17   3.20567365055901E-08
     -1.04018350577917E-16  -6.68706318222222E-01  -6.68706318222222E-01   0.00000000000000E+00   0.00000000000000E+00
     -3.20567364333386E-08  -5.15331592204420E-17  -3.20567364848718E-08  -3.45148630768433E-16
      9.07315792592593E-01
      0.00000000000000E+00   0.00000000000000E+00   0.00000000000000E+00   0.00000000000000E+00   0.00000000000000E+00
      0.00000000000000E+00   0.00000000000000E+00   4.61374324905859E-16   0.00000000000000E+00   0.00000000000000E+00
      0.00000000000000E+00   0.00000000000000E+00   3.28021794674302E-08  -1.85913268441226E-17   3.28021794488389E-08
     -1.04007177006448E-16  -7.07706318222223E-01  -7.07706318222223E-01   0.00000000000000E+00   0.00000000000000E+00
     -3.28021796975899E-08   2.48785370375225E-16  -3.28021794488045E-08  -3.58582398768189E-16
      9.57315792592593E-01
      0.00000000000000E+00   0.00000000000000E+00   0.00000000000000E+00   0.00000000000000E+00   0.00000000000000E+00
      0.00000000000000E+00   0.00000000000000E+00   4.74749613702837E-16   0.00000000000000E+00   0.00000000000000E+00
      0.00000000000000E+00   0.00000000000000E+00   3.35450355588528E-08  -1.87043956657634E-16   3.35450353718089E-08
     -1.03996076519914E-16  -7.46706318222223E-01  -7.46706318222223E-01   0.00000000000000E+00   0.00000000000000E+00
     -3.35450355680029E-08   1.96127404939513E-16  -3.35450353718755E-08  -3.71968993104948E-16
      1.00000000000000E+00
      0.00000000000000E+00   0.00000000000000E+00   0.00000000000000E+00   0.00000000000000E+00   0.00000000000000E+00
      0.00000000000000E+00   0.00000000000000E+00   4.86131648973906E-16   0.00000000000000E+00   0.00000000000000E+00
      0.00000000000000E+00   0.00000000000000E+00   3.41774201028368E-08   1.29991483713490E-16   3.41774202328283E-08
     -1.03986655870337E-16  -7.80000000000000E-01  -7.80000000000000E-01   0.00000000000000E+00   0.00000000000000E+00
     -3.41774200483366E-08  -1.84850793708318E-16  -3.41774202331874E-08  -3.83360623395198E-16
}
