DF-ISE text

Info {
  version   = 1.0
  type      = xyplot
  datasets  = [
    "time"
    "gate OuterVoltage" "gate InnerVoltage" "gate QuasiFermiPotential" "gate DisplacementCurrent" "gate eCurrent"
    "gate hCurrent" "gate TotalCurrent" "gate Charge" "source OuterVoltage" "source InnerVoltage"
    "source QuasiFermiPotential" "source DisplacementCurrent" "source eCurrent" "source hCurrent" "source TotalCurrent"
    "source Charge" "drain OuterVoltage" "drain InnerVoltage" "drain QuasiFermiPotential" "drain DisplacementCurrent"
    "drain eCurrent" "drain hCurrent" "drain TotalCurrent" "drain Charge" ]
  functions = [
    Time
    OuterVoltage InnerVoltage QuasiFermiPotential DisplacementCurrent eCurrent
    hCurrent TotalCurrent Charge OuterVoltage InnerVoltage
    QuasiFermiPotential DisplacementCurrent eCurrent hCurrent TotalCurrent
    Charge OuterVoltage InnerVoltage QuasiFermiPotential DisplacementCurrent
    eCurrent hCurrent TotalCurrent Charge ]
}

Data {
      0.00000000000000E+00
      0.00000000000000E+00   0.00000000000000E+00   0.00000000000000E+00   0.00000000000000E+00   0.00000000000000E+00
      0.00000000000000E+00   0.00000000000000E+00  -1.65868745350546E-16   0.00000000000000E+00   0.00000000000000E+00
      0.00000000000000E+00   0.00000000000000E+00   6.45363711575796E-20  -4.08957672727872E-32   6.45363711575387E-20
      8.35180178344949E-17   0.00000000000000E+00   0.00000000000000E+00   0.00000000000000E+00   0.00000000000000E+00
     -2.76519358578822E-20  -3.20852326107676E-32  -2.76519358579143E-20   8.38324532048194E-17
      0.00000000000000E+00
      0.00000000000000E+00   0.00000000000000E+00   0.00000000000000E+00   0.00000000000000E+00   0.00000000000000E+00
      0.00000000000000E+00   0.00000000000000E+00  -1.65868738662485E-16   0.00000000000000E+00   0.00000000000000E+00
      0.00000000000000E+00   0.00000000000000E+00  -2.68764298155898E-17   9.20578877534216E-31  -2.68764298155889E-17
      8.35180151105778E-17   0.00000000000000E+00   0.00000000000000E+00   0.00000000000000E+00   0.00000000000000E+00
      3.68935609302892E-17  -4.08303646944522E-30   3.68935609302851E-17   8.38324502831917E-17
      0.00000000000000E+00
      0.00000000000000E+00   0.00000000000000E+00   0.00000000000000E+00   0.00000000000000E+00   0.00000000000000E+00
      0.00000000000000E+00   0.00000000000000E+00  -1.65868738662484E-16   0.00000000000000E+00   0.00000000000000E+00
      0.00000000000000E+00   0.00000000000000E+00   7.66529249541281E-21   2.48721901271867E-34   7.66529249541306E-21
      8.35180151105781E-17   0.00000000000000E+00   0.00000000000000E+00   0.00000000000000E+00   0.00000000000000E+00
     -3.01167110774812E-20   6.84499035444133E-35  -3.01167110774811E-20   8.38324502831915E-17
      1.00000000000000E-03
      0.00000000000000E+00   0.00000000000000E+00   0.00000000000000E+00   0.00000000000000E+00   0.00000000000000E+00
      0.00000000000000E+00   0.00000000000000E+00  -1.65888012242794E-16   0.00000000000000E+00   0.00000000000000E+00
      0.00000000000000E+00   0.00000000000000E+00  -1.59582141126933E-09  -8.84158815179780E-28  -1.59582141126933E-09
      8.35179827666626E-17   5.00000000000000E-05   5.00000000000000E-05   0.00000000000000E+00   0.00000000000000E+00
      1.54511569007132E-09  -1.86420191964676E-25   1.54511569007132E-09   8.38515888859107E-17
      3.00000000000000E-03
      0.00000000000000E+00   0.00000000000000E+00   0.00000000000000E+00   0.00000000000000E+00   0.00000000000000E+00
      0.00000000000000E+00   0.00000000000000E+00  -1.65926557210653E-16   0.00000000000000E+00   0.00000000000000E+00
      0.00000000000000E+00   0.00000000000000E+00  -4.75003903074918E-09   3.89662116075294E-28  -4.75003903074918E-09
      8.35179180323678E-17   1.50000000000000E-04   1.50000000000000E-04   0.00000000000000E+00   0.00000000000000E+00
      4.75003824683461E-09  -9.01831129533725E-28   4.75003824683461E-09   8.38898649123138E-17
      7.00000000000000E-03
      0.00000000000000E+00   0.00000000000000E+00   0.00000000000000E+00   0.00000000000000E+00   0.00000000000000E+00
      0.00000000000000E+00   0.00000000000000E+00  -1.66003641791308E-16   0.00000000000000E+00   0.00000000000000E+00
      0.00000000000000E+00   0.00000000000000E+00  -1.09678220835893E-08   1.28819177997046E-28  -1.09678220835893E-08
      8.35177884523803E-17   3.50000000000000E-04   3.50000000000000E-04   0.00000000000000E+00   0.00000000000000E+00
      1.09678211695683E-08  -1.06156300301882E-29   1.09678211695683E-08   8.39664140792814E-17
      1.50000000000000E-02
      0.00000000000000E+00   0.00000000000000E+00   0.00000000000000E+00   0.00000000000000E+00   0.00000000000000E+00
      0.00000000000000E+00   0.00000000000000E+00  -1.66157787622151E-16   0.00000000000000E+00   0.00000000000000E+00
      0.00000000000000E+00   0.00000000000000E+00  -2.30175676828676E-08   1.99422270893561E-28  -2.30175676828676E-08
      8.35175288240703E-17   7.50000000000000E-04   7.50000000000000E-04   0.00000000000000E+00   0.00000000000000E+00
      2.30175691736981E-08   4.61329334619950E-28   2.30175691736981E-08   8.41194998038860E-17
      3.10000000000000E-02
      0.00000000000000E+00   0.00000000000000E+00   0.00000000000000E+00   0.00000000000000E+00   0.00000000000000E+00
      0.00000000000000E+00   0.00000000000000E+00  -1.66465986276285E-16   0.00000000000000E+00   0.00000000000000E+00
      0.00000000000000E+00   0.00000000000000E+00  -4.56489250843293E-08   7.99316000100824E-28  -4.56489250843293E-08
      8.35170078346353E-17   1.55000000000000E-03   1.55000000000000E-03   0.00000000000000E+00   0.00000000000000E+00
      4.56489472215225E-08   1.82194532492516E-27   4.56489472215225E-08   8.44256206736017E-17
      6.30000000000000E-02
      0.00000000000000E+00   0.00000000000000E+00   0.00000000000000E+00   0.00000000000000E+00   0.00000000000000E+00
      0.00000000000000E+00   0.00000000000000E+00  -1.67082014100844E-16   0.00000000000000E+00   0.00000000000000E+00
      0.00000000000000E+00   0.00000000000000E+00  -8.55907267221887E-08   3.14231134738015E-27  -8.55907267221887E-08
      8.35159599448744E-17   3.15000000000000E-03   3.15000000000000E-03   0.00000000000000E+00   0.00000000000000E+00
      8.55910297416904E-08   6.89299836376730E-27   8.55910297416904E-08   8.50376590707121E-17
      1.13000000000000E-01
      0.00000000000000E+00   0.00000000000000E+00   0.00000000000000E+00   0.00000000000000E+00   0.00000000000000E+00
      0.00000000000000E+00   0.00000000000000E+00  -1.68043583494871E-16   0.00000000000000E+00   0.00000000000000E+00
      0.00000000000000E+00   0.00000000000000E+00  -1.36014964691542E-07   9.89339086720043E-27  -1.36014964691542E-07
      8.35143108453657E-17   5.65000000000000E-03   5.65000000000000E-03   0.00000000000000E+00   0.00000000000000E+00
      1.36016611582448E-07   2.02408223698114E-26   1.36016611582448E-07   8.59934223272894E-17
      1.63000000000000E-01
      0.00000000000000E+00   0.00000000000000E+00   0.00000000000000E+00   0.00000000000000E+00   0.00000000000000E+00
      0.00000000000000E+00   0.00000000000000E+00  -1.69003985630357E-16   0.00000000000000E+00   0.00000000000000E+00
      0.00000000000000E+00   0.00000000000000E+00  -1.74780711578296E-07   2.04241258739713E-26  -1.74780711578296E-07
      8.35126524975133E-17   8.15000000000000E-03   8.15000000000000E-03   0.00000000000000E+00   0.00000000000000E+00
      1.74782402805782E-07   3.98129001816518E-26   1.74782402805782E-07   8.69485138943389E-17
      2.13000000000000E-01
      0.00000000000000E+00   0.00000000000000E+00   0.00000000000000E+00   0.00000000000000E+00   0.00000000000000E+00
      0.00000000000000E+00   0.00000000000000E+00  -1.69963244161650E-16   0.00000000000000E+00   0.00000000000000E+00
      0.00000000000000E+00   0.00000000000000E+00  -2.04528491358744E-07   3.48018896729996E-26  -2.04528491358744E-07
      8.35109892731176E-17   1.06500000000000E-02   1.06500000000000E-02   0.00000000000000E+00   0.00000000000000E+00
      2.04529635506342E-07   6.49642380064651E-26   2.04529635506342E-07   8.79029298700190E-17
      2.63000000000000E-01
      0.00000000000000E+00   0.00000000000000E+00   0.00000000000000E+00   0.00000000000000E+00   0.00000000000000E+00
      0.00000000000000E+00   0.00000000000000E+00  -1.70921382918615E-16   0.00000000000000E+00   0.00000000000000E+00
      0.00000000000000E+00   0.00000000000000E+00  -2.27295185199308E-07   5.28315394072372E-26  -2.27295185199308E-07
      8.35093243279557E-17   1.31500000000000E-02   1.31500000000000E-02   0.00000000000000E+00   0.00000000000000E+00
      2.27296004548651E-07   9.29212867606529E-26   2.27296004548651E-07   8.88566678313258E-17
      3.13000000000000E-01
      0.00000000000000E+00   0.00000000000000E+00   0.00000000000000E+00   0.00000000000000E+00   0.00000000000000E+00
      0.00000000000000E+00   0.00000000000000E+00  -1.71878425902237E-16   0.00000000000000E+00   0.00000000000000E+00
      0.00000000000000E+00   0.00000000000000E+00  -2.44647221848163E-07  -4.17378280735489E-26  -2.44647221848163E-07
      8.35076598654571E-17   1.56500000000000E-02   1.56500000000000E-02   0.00000000000000E+00   0.00000000000000E+00
      2.44647221818694E-07  -5.29555303348647E-27   2.44647221818694E-07   8.98097265198586E-17
      3.63000000000000E-01
      0.00000000000000E+00   0.00000000000000E+00   0.00000000000000E+00   0.00000000000000E+00   0.00000000000000E+00
      0.00000000000000E+00   0.00000000000000E+00  -1.72834396924117E-16   0.00000000000000E+00   0.00000000000000E+00
      0.00000000000000E+00   0.00000000000000E+00  -2.57845581123569E-07  -1.68196307669935E-26  -2.57845581123569E-07
      8.35059975248028E-17   1.81500000000000E-02   1.81500000000000E-02   0.00000000000000E+00   0.00000000000000E+00
      2.57845581134619E-07  -6.81269034342464E-27   2.57845581134619E-07   9.07621055447644E-17
      4.13000000000000E-01
      0.00000000000000E+00   0.00000000000000E+00   0.00000000000000E+00   0.00000000000000E+00   0.00000000000000E+00
      0.00000000000000E+00   0.00000000000000E+00  -1.73789319895077E-16   0.00000000000000E+00   0.00000000000000E+00
      0.00000000000000E+00   0.00000000000000E+00  -2.67849050409191E-07  -9.30974965954415E-29  -2.67849050409191E-07
      8.35043383474259E-17   2.06500000000000E-02   2.06500000000000E-02   0.00000000000000E+00   0.00000000000000E+00
      2.67849050398740E-07  -1.44093980207890E-28   2.67849050398740E-07   9.17138052776981E-17
      4.63000000000000E-01
      0.00000000000000E+00   0.00000000000000E+00   0.00000000000000E+00   0.00000000000000E+00   0.00000000000000E+00
      0.00000000000000E+00   0.00000000000000E+00  -1.74743218501320E-16   0.00000000000000E+00   0.00000000000000E+00
      0.00000000000000E+00   0.00000000000000E+00  -2.75424169359462E-07   4.15802925313508E-27  -2.75424169359462E-07
      8.35026830431042E-17   2.31500000000000E-02   2.31500000000000E-02   0.00000000000000E+00   0.00000000000000E+00
      2.75424169355710E-07   6.10840627684492E-27   2.75424169355710E-07   9.26648266665850E-17
      5.13000000000000E-01
      0.00000000000000E+00   0.00000000000000E+00   0.00000000000000E+00   0.00000000000000E+00   0.00000000000000E+00
      0.00000000000000E+00   0.00000000000000E+00  -1.75696116237305E-16   0.00000000000000E+00   0.00000000000000E+00
      0.00000000000000E+00   0.00000000000000E+00  -2.81175341707880E-07   4.80301043851090E-28  -2.81175341707880E-07
      8.35010320455149E-17   2.56500000000000E-02   2.56500000000000E-02   0.00000000000000E+00   0.00000000000000E+00
      2.81175341700995E-07   1.78305769079538E-27   2.81175341700995E-07   9.36151711424338E-17
      5.63000000000000E-01
      0.00000000000000E+00   0.00000000000000E+00   0.00000000000000E+00   0.00000000000000E+00   0.00000000000000E+00
      0.00000000000000E+00   0.00000000000000E+00  -1.76648036346869E-16   0.00000000000000E+00   0.00000000000000E+00
      0.00000000000000E+00   0.00000000000000E+00  -2.85577085672667E-07   2.23511359972371E-27  -2.85577085672667E-07
      8.34993855827528E-17   2.81500000000000E-02   2.81500000000000E-02   0.00000000000000E+00   0.00000000000000E+00
      2.85577085666282E-07   2.98033653398489E-27   2.85577085666282E-07   9.45648405355291E-17
      6.13000000000000E-01
      0.00000000000000E+00   0.00000000000000E+00   0.00000000000000E+00   0.00000000000000E+00   0.00000000000000E+00
      0.00000000000000E+00   0.00000000000000E+00  -1.77599001739361E-16   0.00000000000000E+00   0.00000000000000E+00
      0.00000000000000E+00   0.00000000000000E+00  -2.88998657888994E-07   2.27684267475029E-27  -2.88998657888994E-07
      8.34977437320170E-17   3.06500000000000E-02   3.06500000000000E-02   0.00000000000000E+00   0.00000000000000E+00
      2.88998657888526E-07   2.81085956522003E-27   2.88998657888526E-07   9.55138370083993E-17
      6.63000000000000E-01
      0.00000000000000E+00   0.00000000000000E+00   0.00000000000000E+00   0.00000000000000E+00   0.00000000000000E+00
      0.00000000000000E+00   0.00000000000000E+00  -1.78549034876083E-16   0.00000000000000E+00   0.00000000000000E+00
      0.00000000000000E+00   0.00000000000000E+00  -2.91723433879012E-07   5.38117410215249E-27  -2.91723433879012E-07
      8.34961064630330E-17   3.31500000000000E-02   3.31500000000000E-02   0.00000000000000E+00   0.00000000000000E+00
      2.91723433874243E-07   6.46676500639361E-27   2.91723433874243E-07   9.64621630018413E-17
      7.13000000000000E-01
      0.00000000000000E+00   0.00000000000000E+00   0.00000000000000E+00   0.00000000000000E+00   0.00000000000000E+00
      0.00000000000000E+00   0.00000000000000E+00  -1.79498157631331E-16   0.00000000000000E+00   0.00000000000000E+00
      0.00000000000000E+00   0.00000000000000E+00  -2.93964763972247E-07   1.12526956391476E-26  -2.93964763972247E-07
      8.34944736727623E-17   3.56500000000000E-02   3.56500000000000E-02   0.00000000000000E+00   0.00000000000000E+00
      2.93964763963097E-07   1.28434461868244E-26   2.93964763963097E-07   9.74098211918234E-17
      7.63000000000000E-01
      0.00000000000000E+00   0.00000000000000E+00   0.00000000000000E+00   0.00000000000000E+00   0.00000000000000E+00
      0.00000000000000E+00   0.00000000000000E+00  -1.80446391142012E-16   0.00000000000000E+00   0.00000000000000E+00
      0.00000000000000E+00   0.00000000000000E+00  -2.95879449879576E-07   1.97999160831299E-26  -2.95879449879576E-07
      8.34928452132321E-17   3.81500000000000E-02   3.81500000000000E-02   0.00000000000000E+00   0.00000000000000E+00
      2.95879449852645E-07   2.14807565762715E-26   2.95879449852645E-07   9.83568144554109E-17
      8.13000000000000E-01
      0.00000000000000E+00   0.00000000000000E+00   0.00000000000000E+00   0.00000000000000E+00   0.00000000000000E+00
      0.00000000000000E+00   0.00000000000000E+00  -1.81393755665539E-16   0.00000000000000E+00   0.00000000000000E+00
      0.00000000000000E+00   0.00000000000000E+00  -2.97579489074302E-07  -1.36519287846410E-26  -2.97579489074302E-07
      8.34912209132024E-17   4.06500000000000E-02   4.06500000000000E-02   0.00000000000000E+00   0.00000000000000E+00
      2.97579489088359E-07  -4.53684028512861E-27   2.97579489088359E-07   9.93031458442181E-17
      8.63000000000000E-01
      0.00000000000000E+00   0.00000000000000E+00   0.00000000000000E+00   0.00000000000000E+00   0.00000000000000E+00
      0.00000000000000E+00   0.00000000000000E+00  -1.82340270466452E-16   0.00000000000000E+00   0.00000000000000E+00
      0.00000000000000E+00   0.00000000000000E+00  -2.99142344771925E-07  -4.65206336604221E-27  -2.99142344771925E-07
      8.34896005942882E-17   4.31500000000000E-02   4.31500000000000E-02   0.00000000000000E+00   0.00000000000000E+00
      2.99142344786081E-07  -2.95935357868823E-27   2.99142344786081E-07   1.00248818563796E-16
      9.13000000000000E-01
      0.00000000000000E+00   0.00000000000000E+00   0.00000000000000E+00   0.00000000000000E+00   0.00000000000000E+00
      0.00000000000000E+00   0.00000000000000E+00  -1.83285953746045E-16   0.00000000000000E+00   0.00000000000000E+00
      0.00000000000000E+00   0.00000000000000E+00  -3.00619760117655E-07  -1.97741863649767E-27  -3.00619760117655E-07
      8.34879840820976E-17   4.56500000000000E-02   4.56500000000000E-02   0.00000000000000E+00   0.00000000000000E+00
      3.00619760108527E-07  -1.83166830020342E-27   3.00619760108527E-07   1.01193835957267E-16
      9.63000000000000E-01
      0.00000000000000E+00   0.00000000000000E+00   0.00000000000000E+00   0.00000000000000E+00   0.00000000000000E+00
      0.00000000000000E+00   0.00000000000000E+00  -1.84230822620732E-16   0.00000000000000E+00   0.00000000000000E+00
      0.00000000000000E+00   0.00000000000000E+00  -3.02045057302562E-07  -3.24738905827715E-28  -3.02045057302562E-07
      8.34863712130345E-17   4.81500000000000E-02   4.81500000000000E-02   0.00000000000000E+00   0.00000000000000E+00
      3.02045057293448E-07  -2.83304121440741E-28   3.02045057293448E-07   1.02138201491870E-16
      1.00000000000000E+00
      0.00000000000000E+00   0.00000000000000E+00   0.00000000000000E+00   0.00000000000000E+00   0.00000000000000E+00
      0.00000000000000E+00   0.00000000000000E+00  -1.84929510891628E-16   0.00000000000000E+00   0.00000000000000E+00
      0.00000000000000E+00   0.00000000000000E+00  -3.03078945901643E-07   1.51109253488802E-27  -3.03078945901643E-07
      8.34851799448361E-17   5.00000000000000E-02   5.00000000000000E-02   0.00000000000000E+00   0.00000000000000E+00
      3.03078946822859E-07   1.06826518328195E-27   3.03078946822859E-07   1.02836614400393E-16
}
