DF-ISE text

Info {
  version    = 1.0
  type       = xyplot
  datasets   = [ "time"
        "particle MCdrain" "particle MCsubstrate" ]
  functions   = [ time
        particle particle ]
  }

Data {
   0.00000000E+00  0.00000000E+00  0.00000000E+00
   0.12000000E-07 -0.14671911E-02  0.21728088E-44
   0.24000000E-07 -0.16840703E-02  0.21728088E-44
   0.36000000E-07 -0.16941438E-02  0.21728088E-44
   0.48000000E-07 -0.17151368E-02  0.21728088E-44
   0.60000000E-07 -0.16678706E-02  0.21728088E-44
   0.72000000E-07 -0.17670986E-02  0.21728088E-44
   0.84000000E-07 -0.18147854E-02  0.21728088E-44
   0.96000000E-07 -0.17761007E-02  0.21728088E-44
   0.10800000E-06 -0.16290266E-02  0.21728088E-44
   0.12000000E-06 -0.16156085E-02  0.21728088E-44
   0.13200000E-06 -0.17100579E-02  0.21728088E-44
   0.14400000E-06 -0.17407747E-02  0.21728088E-44
   0.15600000E-06 -0.16358459E-02  0.21728088E-44
   0.16800000E-06 -0.17486717E-02  0.21728088E-44
   0.18000000E-06 -0.16227662E-02  0.21728088E-44
   0.19200000E-06 -0.16828125E-02  0.21728088E-44
   0.20400000E-06 -0.18326217E-02  0.21728088E-44
   0.21600000E-06 -0.17429649E-02  0.21728088E-44
   0.22800000E-06 -0.16143401E-02  0.21728088E-44
   0.24000000E-06 -0.14752794E-02  0.21728088E-44
   0.25200000E-06 -0.16884190E-02  0.21728088E-44
   0.26400000E-06 -0.18020258E-02  0.21728088E-44
   0.27600000E-06 -0.16622968E-02  0.21728088E-44
   0.28800000E-06 -0.18022493E-02  0.21728088E-44
   0.30000000E-06 -0.14849068E-02  0.21728088E-44
   0.31200000E-06 -0.16326850E-02  0.21728088E-44
   0.32400000E-06 -0.15610864E-02  0.21728088E-44
   0.33600000E-06 -0.17229073E-02  0.21728088E-44
   0.34800000E-06 -0.17507464E-02  0.21728088E-44
   0.36000000E-06 -0.16739209E-02  0.21728088E-44
   0.37200000E-06 -0.16225029E-02  0.21728088E-44
   0.38400000E-06 -0.17742391E-02  0.21728088E-44
   0.39600000E-06 -0.17318865E-02  0.21728088E-44
   0.40800000E-06 -0.16677430E-02  0.21728088E-44
   0.42000000E-06 -0.16848641E-02  0.21728088E-44
   0.43200000E-06 -0.16048221E-02  0.21728088E-44
   0.44400000E-06 -0.16366769E-02  0.21728088E-44
   0.45600000E-06 -0.15214194E-02  0.21728088E-44
   0.46800000E-06 -0.17428153E-02  0.21728088E-44
   0.48000000E-06 -0.16054115E-02  0.21728088E-44
   0.49200000E-06 -0.17219567E-02  0.21728088E-44
