DF-ISE text

Info {
  version    = 1.0
  type       = xyplot
  datasets   = [ "number"
        "particle MCdrain" "particle MCdrain-Error" "particle MCsubstrate" "particle MCsubstrate-Error" ]
  functions   = [ number
        particle particle particle particle ]
  }

Data {
        1  0.00000000E+00  0.00000000E+00  0.00000000E+00  0.00000000E+00
        2 -0.16482119E-02  0.31196235E+01  0.21728088E-44  0.00000000E+00
        3 -0.16902210E-02  0.52720028E+01  0.21728088E-44  0.15693276E-05
        4 -0.17006374E-02  0.39022951E+01  0.21728088E-44  0.00000000E+00
        5 -0.16940585E-02  0.31322692E+01  0.21728088E-44  0.17191123E-05
        6 -0.16925261E-02  0.25661992E+01  0.21728088E-44  0.00000000E+00
        7 -0.16799969E-02  0.26455697E+01  0.21728088E-44  0.11863002E-05
        8 -0.16745819E-02  0.23877900E+01  0.21728088E-44  0.10273661E-05
        9 -0.16575639E-02  0.29567613E+01  0.21728088E-44  0.90605171E-06
       10 -0.16660890E-02  0.28230921E+01  0.21728088E-44  0.11460748E-05
       11 -0.16605729E-02  0.26468021E+01  0.21728088E-44  0.14660639E-05
       12 -0.16656882E-02  0.24858411E+01  0.21728088E-44  0.13383271E-05
