DF-ISE text

Info {
  version    = 1.0
  type       = xyplot
  datasets   = [ "number"
        "particle MCdrain" "particle MCdrain-Error" "particle MCsubstrate" "particle MCsubstrate-Error" ]
  functions   = [ number
        particle particle particle particle ]
  }

Data {
        1  0.00000000E+00  0.00000000E+00  0.00000000E+00  0.00000000E+00
        2  0.20484661E-02  0.70324853E+01  0.21766277E-44  0.27133861E-05
        3  0.20412669E-02  0.41351321E+01  0.21766277E-44  0.00000000E+00
        4  0.20857261E-02  0.51345750E+01  0.30013505E-12  0.20000000E+03
        5  0.21048665E-02  0.43404508E+01  0.25475884E-12  0.18595663E+03
        6  0.20963739E-02  0.36493962E+01  0.21229904E-12  0.18653867E+03
        7  0.21041349E-02  0.31602313E+01  0.18197060E-12  0.18692569E+03
        8  0.21083139E-02  0.27600345E+01  0.15922428E-12  0.18720164E+03
        9  0.21153163E-02  0.25147800E+01  0.14153269E-12  0.18740833E+03
       10  0.21152159E-02  0.22494144E+01  0.15540116E-12  0.15370375E+03
