DF-ISE text

Info {
  version    = 1.0
  type       = xyplot
  datasets   = [ "time"
        "particle MCdrain" "particle MCsubstrate" ]
  functions   = [ time
        particle particle ]
  }

Data {
   0.00000000E+00  0.00000000E+00  0.00000000E+00
   0.12000000E-07  0.18504648E-02  0.21766277E-44
   0.24000000E-07  0.17504469E-02  0.21766277E-44
   0.36000000E-07  0.18190417E-02  0.21766277E-44
   0.48000000E-07  0.18109860E-02  0.21766277E-44
   0.60000000E-07  0.20080685E-02  0.21766277E-44
   0.72000000E-07  0.19994505E-02  0.21766277E-44
   0.84000000E-07  0.19220222E-02  0.21766277E-44
   0.96000000E-07  0.19927354E-02  0.21766277E-44
   0.10800000E-06  0.20736907E-02  0.21766277E-44
   0.12000000E-06  0.19313581E-02  0.21766277E-44
   0.13200000E-06  0.20542341E-02  0.21766277E-44
   0.14400000E-06  0.21036127E-02  0.21766277E-44
   0.15600000E-06  0.20475237E-02  0.21766277E-44
   0.16800000E-06  0.21797405E-02  0.21766277E-44
   0.18000000E-06  0.20626898E-02  0.21766277E-44
   0.19200000E-06  0.21605981E-02  0.21766277E-44
   0.20400000E-06  0.21642339E-02  0.21766277E-44
   0.21600000E-06  0.20445741E-02  0.21766277E-44
   0.22800000E-06  0.20460523E-02  0.21766277E-44
   0.24000000E-06  0.21499560E-02  0.21766277E-44
   0.25200000E-06  0.20320114E-02  0.21766277E-44
   0.26400000E-06  0.21636513E-02  0.21766277E-44
   0.27600000E-06  0.20964670E-02  0.41379056E-12
   0.28800000E-06  0.19714082E-02  0.57085792E-12
   0.30000000E-06  0.22076521E-02  0.21766277E-44
   0.31200000E-06  0.20943384E-02  0.21766277E-44
   0.32400000E-06  0.21119250E-02  0.21766277E-44
   0.33600000E-06  0.21356157E-02  0.21766277E-44
   0.34800000E-06  0.21183832E-02  0.21766277E-44
   0.36000000E-06  0.19764371E-02  0.21766277E-44
   0.37200000E-06  0.21204952E-02  0.21766277E-44
   0.38400000E-06  0.20268684E-02  0.21766277E-44
   0.39600000E-06  0.22191039E-02  0.12005402E-11
   0.40800000E-06  0.21814278E-02  0.73254033E-13
   0.42000000E-06  0.20539110E-02  0.21766277E-44
   0.43200000E-06  0.21507008E-02  0.21766277E-44
   0.44400000E-06  0.21375670E-02  0.21766277E-44
   0.45600000E-06  0.21713355E-02  0.21766277E-44
   0.46800000E-06  0.21143120E-02  0.28021739E-12
