DF-ISE text

Info {
  version    = 1.0
  type       = xyplot
  datasets   = [ "number"
        "particle MCdrain" "particle MCdrain-Error" "particle MCsubstrate" "particle MCsubstrate-Error" ]
  functions   = [ number
        particle particle particle particle ]
  }

Data {
