DF-ISE text

Info {
  version    = 1.0
  type       = xyplot
  datasets   = [ "time"
        "particle MCdrain" "particle MCsubstrate" ]
  functions   = [ time
        particle particle ]
  }

Data {
   0.00000000E+00  0.00000000E+00  0.00000000E+00
