DF-ISE text

Info {
  version   = 1.0
  type      = xyplot
  datasets  = [
    "time"
    "ntype OuterVoltage" "ntype InnerVoltage" "ntype QuasiFermiPotential" "ntype DisplacementCurrent" "ntype eCurrent"
    "ntype hCurrent" "ntype TotalCurrent" "ntype Charge" "ptype OuterVoltage" "ptype InnerVoltage"
    "ptype QuasiFermiPotential" "ptype DisplacementCurrent" "ptype eCurrent" "ptype hCurrent" "ptype TotalCurrent"
    "ptype Charge" ]
  functions = [
    Time
    OuterVoltage InnerVoltage QuasiFermiPotential DisplacementCurrent eCurrent
    hCurrent TotalCurrent Charge OuterVoltage InnerVoltage
    QuasiFermiPotential DisplacementCurrent eCurrent hCurrent TotalCurrent
    Charge ]
}

Data {
      1.00000000000000E-02
      1.00000000000000E-01   9.99999988899033E-02   0.00000000000000E+00   0.00000000000000E+00   1.11009707948193E-05
     -7.94308678222370E-18   1.11009707948113E-05   1.29735215864401E-30   0.00000000000000E+00   1.11009707948110E-09
      0.00000000000000E+00   0.00000000000000E+00  -1.11009707922502E-05  -2.56098061768991E-15  -1.11009707948112E-05
      1.89801713570347E-27
      2.00000000000000E-02
      2.00000000000000E-01   1.99999998881511E-01   0.00000000000000E+00   0.00000000000000E+00   1.11848802081409E-05
     -3.07619779799414E-17   1.11848802081101E-05  -1.10985604247635E-30   0.00000000000000E+00   1.11848802081103E-09
      0.00000000000000E+00   0.00000000000000E+00  -1.11848801994464E-05  -8.66381911030096E-15  -1.11848802081102E-05
      8.90449296989306E-28
      3.00000000000000E-02
      3.00000000000000E-01   2.99999998874126E-01   0.00000000000000E+00   0.00000000000000E+00   1.12587501916008E-05
     -1.89120711914245E-17   1.12587501915819E-05   5.04425035109140E-30   0.00000000000000E+00   1.12587501915818E-09
      0.00000000000000E+00   0.00000000000000E+00  -1.12587501865848E-05  -4.99700324968593E-15  -1.12587501915818E-05
     -1.25997390064672E-27
      4.00000000000000E-02
      4.00000000000000E-01   3.99999998867447E-01   0.00000000000000E+00   0.00000000000000E+00   1.13255390437939E-05
     -8.77050090365286E-18   1.13255390437851E-05   7.16719024705433E-30   0.00000000000000E+00   1.13255390437852E-09
      0.00000000000000E+00   0.00000000000000E+00  -1.13255390419875E-05  -1.79770735225453E-15  -1.13255390437852E-05
     -6.89017985607114E-29
      5.00000000000000E-02
      5.00000000000000E-01   4.99999998861244E-01   0.00000000000000E+00   0.00000000000000E+00   1.13875906024189E-05
     -5.52871572854514E-18   1.13875906024134E-05   3.18743397485032E-30   0.00000000000000E+00   1.13875906024134E-09
      0.00000000000000E+00   0.00000000000000E+00  -1.13875906023466E-05  -6.67727250115641E-17  -1.13875906024134E-05
     -2.58923668861010E-27
      6.00000000000000E-02
      6.00000000000000E-01   5.99999998855334E-01   0.00000000000000E+00   0.00000000000000E+00   1.14466247404749E-05
     -4.52330581831737E-18   1.14466247404704E-05  -4.34567611182155E-30   0.00000000000000E+00   1.14466247404704E-09
      0.00000000000000E+00   0.00000000000000E+00  -1.14466247405675E-05   9.72341217123909E-17  -1.14466247404703E-05
      4.22608987927745E-27
      7.00000000000000E-02
      7.00000000000000E-01   6.99999998849595E-01   0.00000000000000E+00   0.00000000000000E+00   1.15040033909504E-05
     -3.34999249142480E-18   1.15040033909470E-05   6.04826181186020E-33   0.00000000000000E+00   1.15040033909470E-09
      0.00000000000000E+00   0.00000000000000E+00  -1.15040033911078E-05   1.60744807678743E-16  -1.15040033909471E-05
      4.92763986335874E-28
      8.00000000000000E-02
      8.00000000000000E-01   7.99999998843904E-01   0.00000000000000E+00   0.00000000000000E+00   1.15609054685160E-05
     -3.08703888934489E-18   1.15609054685129E-05   2.08846480363533E-29   0.00000000000000E+00   1.15609054685128E-09
      0.00000000000000E+00   0.00000000000000E+00  -1.15609054682969E-05  -2.16019284153510E-16  -1.15609054685129E-05
     -2.31585525471402E-27
      9.00000000000000E-02
      9.00000000000000E-01   8.99999998838163E-01   0.00000000000000E+00   0.00000000000000E+00   1.16183324188377E-05
     -2.75661901085447E-18   1.16183324188349E-05  -6.29926467705239E-30   0.00000000000000E+00   1.16183324188349E-09
      0.00000000000000E+00   0.00000000000000E+00  -1.16183324191562E-05   3.21265615244384E-16  -1.16183324188349E-05
      2.93795527163471E-27
      1.00000000000000E-01
      1.00000000000000E+00   9.99999998832284E-01   0.00000000000000E+00   0.00000000000000E+00   1.16771511038725E-05
     -1.94499258243470E-18   1.16771511038705E-05   1.34664549241067E-29   0.00000000000000E+00   1.16771511038705E-09
      0.00000000000000E+00   0.00000000000000E+00  -1.16771511036815E-05  -1.89007120883363E-16  -1.16771511038705E-05
     -1.73318990480666E-28
      1.10000000000000E-01
      1.10000000000000E+00   1.09999999882618E+00   0.00000000000000E+00   0.00000000000000E+00   1.17381113033549E-05
     -1.67296405412745E-18   1.17381113033532E-05  -7.69641315559210E-30   0.00000000000000E+00   1.17381113033533E-09
      0.00000000000000E+00   0.00000000000000E+00  -1.17381113041314E-05   7.77916672028728E-16  -1.17381113033534E-05
      3.74513209999833E-27
      1.20000000000000E-01
      1.20000000000000E+00   1.19999999881981E+00   0.00000000000000E+00   0.00000000000000E+00   1.18019118437252E-05
     -1.12487447703334E-18   1.18019118437241E-05  -2.20459143042304E-30   0.00000000000000E+00   1.18019118437241E-09
      0.00000000000000E+00   0.00000000000000E+00  -1.18019118443998E-05   6.75855192345848E-16  -1.18019118437239E-05
      2.82884462854876E-27
      1.30000000000000E-01
      1.30000000000000E+00   1.29999999881309E+00   0.00000000000000E+00   0.00000000000000E+00   1.18692114085218E-05
     -8.44285685953572E-19   1.18692114085210E-05   3.68641557432879E-30   0.00000000000000E+00   1.18692114085211E-09
      0.00000000000000E+00   0.00000000000000E+00  -1.18692114092960E-05   7.74816622900884E-16  -1.18692114085212E-05
     -3.74377728935247E-27
      1.40000000000000E-01
      1.40000000000000E+00   1.39999999880595E+00   0.00000000000000E+00   0.00000000000000E+00   1.19406106547211E-05
     -7.78965010703580E-19   1.19406106547203E-05  -6.74683605113005E-30   0.00000000000000E+00   1.19406106547204E-09
      0.00000000000000E+00   0.00000000000000E+00  -1.19406106555670E-05   8.46582286563486E-16  -1.19406106547204E-05
      1.05442977123246E-27
      1.50000000000000E-01
      1.50000000000000E+00   1.49999999879833E+00   0.00000000000000E+00   0.00000000000000E+00   1.20167084398709E-05
     -7.16306760251299E-19   1.20167084398702E-05   1.72012565929304E-29   0.00000000000000E+00   1.20167084398702E-09
      0.00000000000000E+00   0.00000000000000E+00  -1.20167084407384E-05   8.68264727406779E-16  -1.20167084398702E-05
     -9.15658452221139E-28
      1.60000000000000E-01
      1.60000000000000E+00   1.59999999879019E+00   0.00000000000000E+00   0.00000000000000E+00   1.20980666789517E-05
     -8.12361970524130E-19   1.20980666789509E-05   4.23983153011400E-30   0.00000000000000E+00   1.20980666789510E-09
      0.00000000000000E+00   0.00000000000000E+00  -1.20980666797431E-05   7.92149256754964E-16  -1.20980666789510E-05
      1.34111738111463E-27
      1.70000000000000E-01
      1.70000000000000E+00   1.69999999878148E+00   0.00000000000000E+00   0.00000000000000E+00   1.21852928574660E-05
     -8.43551763986008E-19   1.21852928574651E-05   1.40259191417038E-29   0.00000000000000E+00   1.21852928574652E-09
      0.00000000000000E+00   0.00000000000000E+00  -1.21852928582024E-05   7.37264795270509E-16  -1.21852928574651E-05
     -1.86973546347121E-27
      1.80000000000000E-01
      1.80000000000000E+00   1.79999999877210E+00   0.00000000000000E+00   0.00000000000000E+00   1.22789896516721E-05
     -1.06727807397030E-18   1.22789896516710E-05  -4.26402457736144E-30   0.00000000000000E+00   1.22789896516710E-09
      0.00000000000000E+00   0.00000000000000E+00  -1.22789896523584E-05   6.87608340244677E-16  -1.22789896516708E-05
      3.29470594634548E-27
      1.90000000000000E-01
      1.90000000000000E+00   1.89999999876202E+00   0.00000000000000E+00   0.00000000000000E+00   1.23798273977701E-05
     -1.76880756652590E-18   1.23798273977683E-05  -5.37992888164964E-30   0.00000000000000E+00   1.23798273977683E-09
      0.00000000000000E+00   0.00000000000000E+00  -1.23798273978036E-05   3.53873140730269E-17  -1.23798273977682E-05
      4.24587979192586E-28
      2.00000000000000E-01
      2.00000000000000E+00   1.99999999875115E+00   0.00000000000000E+00   0.00000000000000E+00   1.24884685005464E-05
     -6.24158725874811E-18   1.24884685005401E-05  -1.37325784438286E-29   0.00000000000000E+00   1.24884685005401E-09
      0.00000000000000E+00   0.00000000000000E+00  -1.24884685013165E-05   7.76492816967732E-16  -1.24884685005400E-05
     -6.70500627243922E-27
      2.10000000000000E-01
      2.10000000000000E+00   2.09999999873945E+00   0.00000000000000E+00   0.00000000000000E+00   1.26055579413835E-05
     -4.65766813699153E-17   1.26055579413369E-05   9.13892359772076E-30   0.00000000000000E+00   1.26055579413369E-09
      0.00000000000000E+00   0.00000000000000E+00  -1.26055579409137E-05  -4.23196141430409E-16  -1.26055579413369E-05
     -3.41209061159006E-27
      2.20000000000000E-01
      2.20000000000000E+00   2.19999999872686E+00   0.00000000000000E+00   0.00000000000000E+00   1.27313226812361E-05
     -8.73449252634132E-16   1.27313226803626E-05   3.19287741048100E-29   0.00000000000000E+00   1.27313226803626E-09
      0.00000000000000E+00   0.00000000000000E+00  -1.27313226452519E-05  -3.51108565681259E-14  -1.27313226803627E-05
     -2.88768211945453E-28
      2.30000000000000E-01
      2.30000000000000E+00   2.29999999871359E+00   0.00000000000000E+00   0.00000000000000E+00   1.28640261636142E-05
     -3.52858692076869E-17   1.28640261635789E-05  -1.65934062808384E-29   0.00000000000000E+00   1.28640261635788E-09
      0.00000000000000E+00   0.00000000000000E+00  -1.28640261615416E-05  -2.03713550257938E-15  -1.28640261635788E-05
      5.20315028541259E-27
      2.40000000000000E-01
      2.40000000000000E+00   2.39999999870014E+00   0.00000000000000E+00   0.00000000000000E+00   1.29984817470472E-05
     -2.02642098171541E-17   1.29984817470270E-05   3.24519487515359E-29   0.00000000000000E+00   1.29984817470268E-09
      0.00000000000000E+00   0.00000000000000E+00  -1.29984817450077E-05  -2.01918297306537E-15  -1.29984817470269E-05
     -1.26297383850540E-27
      2.50000000000000E-01
      2.50000000000000E+00   2.49999999868601E+00   0.00000000000000E+00   0.00000000000000E+00   1.31400736613413E-05
      3.23085951261635E-17   1.31400736613736E-05  -1.19513653402357E-29   0.00000000000000E+00   1.31400736613736E-09
      0.00000000000000E+00   0.00000000000000E+00  -1.31400736625702E-05   1.19664398150024E-15  -1.31400736613736E-05
      1.21502321886097E-27
      2.60000000000000E-01
      2.60000000000000E+00   2.59999999867051E+00   0.00000000000000E+00   0.00000000000000E+00   1.32949531652267E-05
     -7.60876723447075E-19   1.32949531652260E-05   2.04370766622756E-29   0.00000000000000E+00   1.32949531652260E-09
      0.00000000000000E+00   0.00000000000000E+00  -1.32949531646976E-05  -5.28533606836067E-16  -1.32949531652261E-05
      7.80467704202440E-28
      2.70000000000000E-01
      2.70000000000000E+00   2.69999999865348E+00   0.00000000000000E+00   0.00000000000000E+00   1.34653157761285E-05
      3.20895094280020E-21   1.34653157761285E-05   1.64210308192004E-29   0.00000000000000E+00   1.34653157761285E-09
      0.00000000000000E+00   0.00000000000000E+00  -1.34653157759565E-05  -1.72108586481797E-16  -1.34653157761286E-05
      9.97440629136388E-27
      2.80000000000000E-01
      2.80000000000000E+00   2.79999999863468E+00   0.00000000000000E+00   0.00000000000000E+00   1.36531410148641E-05
      3.81392023924528E-16   1.36531410152455E-05  -5.25896364541244E-30   0.00000000000000E+00   1.36531410152456E-09
      0.00000000000000E+00   0.00000000000000E+00  -1.36531410630367E-05   4.77911129520841E-14  -1.36531410152456E-05
      6.62850785704282E-27
      2.90000000000000E-01
      2.90000000000000E+00   2.89999999861391E+00   0.00000000000000E+00   0.00000000000000E+00   1.38607410070618E-05
      3.13140309516786E-16   1.38607410073750E-05   8.34660130036707E-31   0.00000000000000E+00   1.38607410073749E-09
      0.00000000000000E+00   0.00000000000000E+00  -1.38607410553009E-05   4.79258066989019E-14  -1.38607410073751E-05
     -9.22238961072443E-28
      3.00000000000000E-01
      3.00000000000000E+00   2.99999999859093E+00   0.00000000000000E+00   0.00000000000000E+00   1.40908360318553E-05
      2.88892674765320E-16   1.40908360321442E-05   1.93544377979526E-31   0.00000000000000E+00   1.40908360321442E-09
      0.00000000000000E+00   0.00000000000000E+00  -1.40908360744070E-05   4.22629707465635E-14  -1.40908360321440E-05
     -4.50822919627711E-27
      3.10000000000000E-01
      3.10000000000000E+00   3.09999999856534E+00   0.00000000000000E+00   0.00000000000000E+00   1.43466331873520E-05
      3.08865857250032E-16   1.43466331876609E-05  -5.66117305590114E-30   0.00000000000000E+00   1.43466331876608E-09
      0.00000000000000E+00   0.00000000000000E+00  -1.43466332243817E-05   3.67208596146782E-14  -1.43466331876609E-05
      4.52139021397971E-27
      3.20000000000000E-01
      3.20000000000000E+00   3.19999999853679E+00   0.00000000000000E+00   0.00000000000000E+00   1.46319090793485E-05
      3.39470378455355E-16   1.46319090796880E-05  -1.49845686388836E-29   0.00000000000000E+00   1.46319090796880E-09
      0.00000000000000E+00   0.00000000000000E+00  -1.46319091138542E-05   3.41663177808170E-14  -1.46319090796879E-05
      3.73201946839022E-27
      3.30000000000000E-01
      3.30000000000000E+00   3.29999999850489E+00   0.00000000000000E+00   0.00000000000000E+00   1.49510510791740E-05
      3.56315997029055E-16   1.49510510795303E-05  -1.96810439357931E-29   0.00000000000000E+00   1.49510510795303E-09
      0.00000000000000E+00   0.00000000000000E+00  -1.49510511144143E-05   3.48841172065792E-14  -1.49510510795302E-05
      2.96703531442614E-27
      3.40000000000000E-01
      3.40000000000000E+00   3.39999999846907E+00   0.00000000000000E+00   0.00000000000000E+00   1.53091330722540E-05
      3.80349895774052E-16   1.53091330726344E-05   7.20650394883142E-30   0.00000000000000E+00   1.53091330726344E-09
      0.00000000000000E+00   0.00000000000000E+00  -1.53091331106988E-05   3.80644389399965E-14  -1.53091330726343E-05
      3.10870979910715E-27
      3.50000000000000E-01
      3.50000000000000E+00   3.49999999842878E+00   0.00000000000000E+00   0.00000000000000E+00   1.57120826981838E-05
      4.23658022988662E-16   1.57120826986075E-05   9.93427002598037E-30   0.00000000000000E+00   1.57120826986074E-09
      0.00000000000000E+00   0.00000000000000E+00  -1.57120827416534E-05   4.30458637324796E-14  -1.57120826986075E-05
     -3.49134703437267E-27
      3.60000000000000E-01
      3.60000000000000E+00   3.59999999838330E+00   0.00000000000000E+00   0.00000000000000E+00   1.61669075214756E-05
      4.64561290432665E-16   1.61669075219402E-05   1.96931404594168E-29   0.00000000000000E+00   1.61669075219402E-09
      0.00000000000000E+00   0.00000000000000E+00  -1.61669075711702E-05   4.92300596856017E-14  -1.61669075219401E-05
     -1.46919537324258E-27
      3.70000000000000E-01
      3.70000000000000E+00   3.69999999833182E+00   0.00000000000000E+00   0.00000000000000E+00   1.66819380073586E-05
      4.85684641510080E-16   1.66819380078443E-05  -2.18765629734983E-29   0.00000000000000E+00   1.66819380078443E-09
      0.00000000000000E+00   0.00000000000000E+00  -1.66819380640979E-05   5.62536719084958E-14  -1.66819380078442E-05
      1.06468762326537E-27
      3.80000000000000E-01
      3.80000000000000E+00   3.79999999827326E+00   0.00000000000000E+00   0.00000000000000E+00   1.72671003823540E-05
      4.92634045472234E-16   1.72671003828466E-05   2.85780370610394E-29   0.00000000000000E+00   1.72671003828467E-09
      0.00000000000000E+00   0.00000000000000E+00  -1.72671004468398E-05   6.39930952248304E-14  -1.72671003828467E-05
     -2.50485133981103E-27
      3.90000000000000E-01
      3.90000000000000E+00   3.89999999820657E+00   0.00000000000000E+00   0.00000000000000E+00   1.79342642812216E-05
      5.00771676120468E-16   1.79342642817223E-05  -3.41121966188915E-30   0.00000000000000E+00   1.79342642817223E-09
      0.00000000000000E+00   0.00000000000000E+00  -1.79342643528786E-05   7.11566161934626E-14  -1.79342642817220E-05
      7.24552733404155E-27
      4.00000000000000E-01
      4.00000000000000E+00   3.99999999813024E+00   0.00000000000000E+00   0.00000000000000E+00   1.86977083376555E-05
      5.17082740279894E-16   1.86977083381726E-05  -1.99774087645742E-29   0.00000000000000E+00   1.86977083381726E-09
      0.00000000000000E+00   0.00000000000000E+00  -1.86977084159759E-05   7.78032259781001E-14  -1.86977083381727E-05
     -3.89508060683797E-27
      4.10000000000000E-01
      4.10000000000000E+00   4.09999999804254E+00   0.00000000000000E+00   0.00000000000000E+00   1.95747270863685E-05
      5.33495765048207E-16   1.95747270869020E-05   2.58835364238557E-29   0.00000000000000E+00   1.95747270869019E-09
      0.00000000000000E+00   0.00000000000000E+00  -1.95747271696839E-05   8.27818081390499E-14  -1.95747270869021E-05
     -4.94989746682638E-27
      4.20000000000000E-01
      4.20000000000000E+00   4.19999999794138E+00   0.00000000000000E+00   0.00000000000000E+00   2.05863738293209E-05
      5.38119302789451E-16   2.05863738298591E-05  -1.59825318378406E-29   0.00000000000000E+00   2.05863738298590E-09
      0.00000000000000E+00   0.00000000000000E+00  -2.05863739155349E-05   8.56759179829698E-14  -2.05863738298590E-05
      5.48214450627008E-28
      4.30000000000000E-01
      4.30000000000000E+00   4.29999999782416E+00   0.00000000000000E+00   0.00000000000000E+00   2.17583254565140E-05
      5.23584986486977E-16   2.17583254570375E-05   2.83361065885650E-30   0.00000000000000E+00   2.17583254570376E-09
      0.00000000000000E+00   0.00000000000000E+00  -2.17583255421661E-05   8.51287652456563E-14  -2.17583254570374E-05
      3.13125771914177E-27
      4.40000000000000E-01
      4.40000000000000E+00   4.39999999768782E+00   0.00000000000000E+00   0.00000000000000E+00   2.31219122575631E-05
      4.88404749658196E-16   2.31219122580515E-05   8.06838125702150E-30   0.00000000000000E+00   2.31219122580516E-09
      0.00000000000000E+00   0.00000000000000E+00  -2.31219123397036E-05   8.16520935573499E-14  -2.31219122580515E-05
     -1.34648823760356E-27
      4.50000000000000E-01
      4.50000000000000E+00   4.49999999752847E+00   0.00000000000000E+00   0.00000000000000E+00   2.47154701004327E-05
      4.41467433938678E-16   2.47154701008742E-05  -3.60083266969097E-29   0.00000000000000E+00   2.47154701008742E-09
      0.00000000000000E+00   0.00000000000000E+00  -2.47154701782283E-05   7.73540890930832E-14  -2.47154701008743E-05
      3.83140450648270E-27
      4.60000000000000E-01
      4.60000000000000E+00   4.59999999734139E+00   0.00000000000000E+00   0.00000000000000E+00   2.65862328615291E-05
      3.96741003331819E-16   2.65862328619259E-05  -3.18440984394439E-30   0.00000000000000E+00   2.65862328619259E-09
      0.00000000000000E+00   0.00000000000000E+00  -2.65862329340155E-05   7.20892965860863E-14  -2.65862328619262E-05
     -4.32087823839292E-27
      4.70000000000000E-01
      4.70000000000000E+00   4.69999999712068E+00   0.00000000000000E+00   0.00000000000000E+00   2.87929483335821E-05
      3.56295623268828E-16   2.87929483339384E-05  -3.04529982227161E-30   0.00000000000000E+00   2.87929483339385E-09
      0.00000000000000E+00   0.00000000000000E+00  -2.87929483968651E-05   6.29263281776478E-14  -2.87929483339388E-05
     -5.44827424012366E-28
      4.80000000000000E-01
      4.80000000000000E+00   4.79999999685908E+00   0.00000000000000E+00   0.00000000000000E+00   3.14093935126455E-05
      3.04603000842357E-16   3.14093935129501E-05   3.27543618421289E-29   0.00000000000000E+00   3.14093935129500E-09
      0.00000000000000E+00   0.00000000000000E+00  -3.14093935581020E-05   4.51518280702750E-14  -3.14093935129502E-05
      1.16271785071200E-27
      4.90000000000000E-01
      4.90000000000000E+00   4.89999999654711E+00   0.00000000000000E+00   0.00000000000000E+00   3.45290749730174E-05
      2.19146913410040E-16   3.45290749732366E-05  -1.93181482270815E-29   0.00000000000000E+00   3.45290749732366E-09
      0.00000000000000E+00   0.00000000000000E+00  -3.45290749874147E-05   1.41777692415358E-14  -3.45290749732369E-05
     -5.64762494944258E-27
      5.00000000000000E-01
      5.00000000000000E+00   4.99999999617280E+00   0.00000000000000E+00   0.00000000000000E+00   3.82716066182412E-05
      7.77817521817134E-17   3.82716066183189E-05  -9.04215140873099E-30   0.00000000000000E+00   3.82716066183190E-09
      0.00000000000000E+00   0.00000000000000E+00  -3.82716065795142E-05  -3.88045725390300E-14  -3.82716066183188E-05
     -9.24561493608197E-28
      5.10000000000000E-01
      5.10000000000000E+00   5.09999999572084E+00   0.00000000000000E+00   0.00000000000000E+00   4.27915484816550E-05
     -1.47539750970243E-16   4.27915484815074E-05   2.43744951017966E-30   0.00000000000000E+00   4.27915484815075E-09
      0.00000000000000E+00   0.00000000000000E+00  -4.27915483500361E-05  -1.31471208024239E-13  -4.27915484815073E-05
      8.68569105058720E-27
      5.20000000000000E-01
      5.20000000000000E+00   5.19999999517093E+00   0.00000000000000E+00   0.00000000000000E+00   4.82909433843846E-05
     -5.02941348193367E-16   4.82909433838816E-05   3.27210964021637E-29   0.00000000000000E+00   4.82909433838816E-09
      0.00000000000000E+00   0.00000000000000E+00  -4.82909430831861E-05  -3.00695907871097E-13  -4.82909433838820E-05
      2.13372999503529E-27
      5.30000000000000E-01
      5.30000000000000E+00   5.29999999449628E+00   0.00000000000000E+00   0.00000000000000E+00   5.50374361177097E-05
     -1.07849023065138E-15   5.50374361166312E-05  -3.97975627220401E-30   0.00000000000000E+00   5.50374361166314E-09
      0.00000000000000E+00   0.00000000000000E+00  -5.50374354979765E-05  -6.18654703484970E-13  -5.50374361166312E-05
      5.98632761090675E-28
      5.40000000000000E-01
      5.40000000000000E+00   5.39999999366089E+00   0.00000000000000E+00   0.00000000000000E+00   6.33911777708238E-05
     -2.02829637430128E-15   6.33911777687955E-05   9.82842544427282E-30   0.00000000000000E+00   6.33911777687957E-09
      0.00000000000000E+00   0.00000000000000E+00  -6.33911765350875E-05  -1.23370735592266E-12  -6.33911777687948E-05
      6.17019476998730E-28
      5.50000000000000E-01
      5.50000000000000E+00   5.49999999261539E+00   0.00000000000000E+00   0.00000000000000E+00   7.38457373813961E-05
      5.13110715708155E-18   7.38457373814013E-05  -4.10072150844121E-30   0.00000000000000E+00   7.38457373814013E-09
      0.00000000000000E+00   0.00000000000000E+00  -7.38457373838752E-05   2.47339757633153E-15  -7.38457373814018E-05
      8.70175523395950E-28
      5.60000000000000E-01
      5.60000000000000E+00   5.59999999129084E+00   0.00000000000000E+00   0.00000000000000E+00   8.70919145299100E-05
      1.12667639317534E-17   8.70919145299212E-05  -5.64937894536802E-29   0.00000000000000E+00   8.70919145299210E-09
      0.00000000000000E+00   0.00000000000000E+00  -8.70919145372154E-05   7.29548626035717E-15  -8.70919145299199E-05
      1.30741162768950E-26
      5.70000000000000E-01
      5.70000000000000E+00   5.69999998958794E+00   0.00000000000000E+00   0.00000000000000E+00   1.04120347687192E-04
      2.59177905684839E-17   1.04120347687218E-04  -1.39684606544911E-29   0.00000000000000E+00   1.04120347687218E-08
      0.00000000000000E+00   0.00000000000000E+00  -1.04120347706896E-04   1.96766700225420E-14  -1.04120347687220E-04
      6.39344820998668E-27
      5.80000000000000E-01
      5.80000000000000E+00   5.79999998736088E+00   0.00000000000000E+00   0.00000000000000E+00   1.26391493244115E-04
      6.32388383533202E-17   1.26391493244179E-04  -1.82778471954415E-29   0.00000000000000E+00   1.26391493244178E-08
      0.00000000000000E+00   0.00000000000000E+00  -1.26391493299570E-04   5.53932419104223E-14  -1.26391493244176E-04
     -4.10314081316596E-27
      5.90000000000000E-01
      5.90000000000000E+00   5.89999998438741E+00   0.00000000000000E+00   0.00000000000000E+00   1.56125654776756E-04
      1.66608551494866E-16   1.56125654776922E-04   3.71877377502224E-29   0.00000000000000E+00   1.56125654776922E-08
      0.00000000000000E+00   0.00000000000000E+00  -1.56125654948878E-04   1.71955248584189E-13  -1.56125654776923E-04
      8.60749912188347E-27
      6.00000000000000E-01
      6.00000000000000E+00   5.99999998031905E+00   0.00000000000000E+00   0.00000000000000E+00   1.96809821991810E-04
      4.80537610568498E-16   1.96809821992291E-04  -2.91616943258839E-29   0.00000000000000E+00   1.96809821992291E-08
      0.00000000000000E+00   0.00000000000000E+00  -1.96809822582846E-04   5.90555384177047E-13  -1.96809821992290E-04
      2.33956444101651E-27
      6.10000000000000E-01
      6.10000000000000E+00   6.09999997459070E+00   0.00000000000000E+00   0.00000000000000E+00   2.54092807777809E-04
      1.52749598935682E-15   2.54092807779336E-04   7.76959712351561E-29   0.00000000000000E+00   2.54092807779337E-08
      0.00000000000000E+00   0.00000000000000E+00  -2.54092810047459E-04   2.26812408873078E-12  -2.54092807779335E-04
      2.73865294841030E-28
      6.20000000000000E-01
      6.20000000000000E+00   6.19999996626571E+00   0.00000000000000E+00   0.00000000000000E+00   3.37342850126180E-04
      5.30216780128196E-15   3.37342850131482E-04   4.06443193757005E-30   0.00000000000000E+00   3.37342850131481E-08
      0.00000000000000E+00   0.00000000000000E+00  -3.37342859755208E-04   9.62372638014604E-12  -3.37342850131481E-04
      6.94069493872379E-27
      6.30000000000000E-01
      6.30000000000000E+00   6.29999995377278E+00   0.00000000000000E+00   0.00000000000000E+00   4.62271941316731E-04
      1.93735547187910E-14   4.62271941336104E-04  -5.25170573123821E-29   0.00000000000000E+00   4.62271941336106E-08
      0.00000000000000E+00   0.00000000000000E+00  -4.62271984040409E-04   4.27042983990862E-11  -4.62271941336110E-04
     -4.12830158230329E-28
      6.40000000000000E-01
      6.40000000000000E+00   6.39999993437317E+00   0.00000000000000E+00   0.00000000000000E+00   6.56268233254240E-04
     -8.88079357364354E-16   6.56268233253352E-04  -1.58524942088856E-29   0.00000000000000E+00   6.56268233253350E-08
      0.00000000000000E+00   0.00000000000000E+00  -6.56268230471816E-04  -2.78153847430147E-12  -6.56268233253355E-04
      8.34669807255606E-27
      6.50000000000000E-01
      6.50000000000000E+00   6.49999990037191E+00   0.00000000000000E+00   0.00000000000000E+00   9.96280870810471E-04
      4.54949529502525E-15   9.96280870815021E-04   2.55569302860153E-29   0.00000000000000E+00   9.96280870815020E-08
      0.00000000000000E+00   0.00000000000000E+00  -9.96280890578455E-04   1.97634186569996E-11  -9.96280870815036E-04
      2.02292583864201E-27
      6.55000000000000E-01
      6.55000000000000E+00   6.54999986756673E+00   0.00000000000000E+00   0.00000000000000E+00   1.32433236409431E-03
      2.71137522196527E-16   1.32433236409458E-03  -4.62480339443890E-29   0.00000000000000E+00   1.32433236409459E-07
      0.00000000000000E+00   0.00000000000000E+00  -1.32433236601280E-03   1.91821836712064E-12  -1.32433236409458E-03
      2.45075568616575E-27
      6.63333333333334E-01
      6.63333333333334E+00   6.63333312930783E+00   0.00000000000000E+00   0.00000000000000E+00   2.04025531602671E-03
      4.05974047133565E-15   2.04025531603077E-03   1.50631960424378E-29   0.00000000000000E+00   2.04025531603076E-07
      0.00000000000000E+00   0.00000000000000E+00  -2.04025535306931E-03   3.70385812451159E-11  -2.04025531603073E-03
     -2.87123084732627E-27
      6.73333333333334E-01
      6.73333333333334E+00   6.73333303875582E+00   0.00000000000000E+00   0.00000000000000E+00   2.94577524558989E-03
      1.29940025339082E-14   2.94577524560289E-03  -3.36525287211901E-29   0.00000000000000E+00   2.94577524560290E-07
      0.00000000000000E+00   0.00000000000000E+00  -2.94577537478348E-03   1.29180585068160E-10  -2.94577524560289E-03
     -2.53949578346936E-27
      6.83333333333334E-01
      6.83333333333334E+00   6.83333294675256E+00   0.00000000000000E+00   0.00000000000000E+00   3.86580752160550E-03
     -1.45875058340900E-14   3.86580752159091E-03  -2.91465736713543E-29   0.00000000000000E+00   3.86580752159090E-07
      0.00000000000000E+00   0.00000000000000E+00  -3.86580727023747E-03  -2.51353446151505E-10  -3.86580752159091E-03
     -1.82899437190652E-29
      6.93333333333334E-01
      6.93333333333334E+00   6.93333285371855E+00   0.00000000000000E+00   0.00000000000000E+00   4.79614829400865E-03
      1.00306153879466E-14   4.79614829401868E-03  -2.26809817944757E-31   0.00000000000000E+00   4.79614829401868E-07
      0.00000000000000E+00   0.00000000000000E+00  -4.79614840698778E-03   1.12969130249994E-10  -4.79614829401865E-03
     -2.64981607891769E-27
      7.03333333333334E-01
      7.03333333333334E+00   7.03333275978106E+00   0.00000000000000E+00   0.00000000000000E+00   5.73552227295672E-03
      1.21518012684294E-14   5.73552227296888E-03   3.88993958429789E-29   0.00000000000000E+00   5.73552227296887E-07
      0.00000000000000E+00   0.00000000000000E+00  -5.73552246391721E-03   1.90948287365623E-10  -5.73552227296893E-03
     -8.48692097440223E-28
      7.13333333333334E-01