DF-ISE text

Info {
  version   = 1.0
  type      = xyplot
  datasets  = [
    "time" "v(g)" "v(b)" ]
  functions = [
    Time Voltage Voltage ]
}

Data {
      1.00000000000000E-02   1.00000000000000E-01   0.00000000000000E+00
      2.00000000000000E-02   2.00000000000000E-01   0.00000000000000E+00
      3.00000000000000E-02   3.00000000000000E-01   0.00000000000000E+00
      4.00000000000000E-02   4.00000000000000E-01   0.00000000000000E+00
      5.00000000000000E-02   5.00000000000000E-01   0.00000000000000E+00
      6.00000000000000E-02   6.00000000000000E-01   0.00000000000000E+00
      7.00000000000000E-02   7.00000000000000E-01   0.00000000000000E+00
      8.00000000000000E-02   8.00000000000000E-01   0.00000000000000E+00
      9.00000000000000E-02   9.00000000000000E-01   0.00000000000000E+00
      1.00000000000000E-01   1.00000000000000E+00   0.00000000000000E+00
      1.10000000000000E-01   1.10000000000000E+00   0.00000000000000E+00
      1.20000000000000E-01   1.20000000000000E+00   0.00000000000000E+00
      1.30000000000000E-01   1.30000000000000E+00   0.00000000000000E+00
      1.40000000000000E-01   1.40000000000000E+00   0.00000000000000E+00
      1.50000000000000E-01   1.50000000000000E+00   0.00000000000000E+00
      1.60000000000000E-01   1.60000000000000E+00   0.00000000000000E+00
      1.70000000000000E-01   1.70000000000000E+00   0.00000000000000E+00
      1.80000000000000E-01   1.80000000000000E+00   0.00000000000000E+00
      1.90000000000000E-01   1.90000000000000E+00   0.00000000000000E+00
      2.00000000000000E-01   2.00000000000000E+00   0.00000000000000E+00
      2.10000000000000E-01   2.10000000000000E+00   0.00000000000000E+00
      2.20000000000000E-01   2.20000000000000E+00   0.00000000000000E+00
      2.30000000000000E-01   2.30000000000000E+00   0.00000000000000E+00
      2.40000000000000E-01   2.40000000000000E+00   0.00000000000000E+00
      2.50000000000000E-01   2.50000000000000E+00   0.00000000000000E+00
      2.60000000000000E-01   2.60000000000000E+00   0.00000000000000E+00
      2.70000000000000E-01   2.70000000000000E+00   0.00000000000000E+00
      2.80000000000000E-01   2.80000000000000E+00   0.00000000000000E+00
      2.90000000000000E-01   2.90000000000000E+00   0.00000000000000E+00
      3.00000000000000E-01   3.00000000000000E+00   0.00000000000000E+00
      3.10000000000000E-01   3.10000000000000E+00   0.00000000000000E+00
      3.20000000000000E-01   3.20000000000000E+00   0.00000000000000E+00
      3.30000000000000E-01   3.30000000000000E+00   0.00000000000000E+00
      3.40000000000000E-01   3.40000000000000E+00   0.00000000000000E+00
      3.50000000000000E-01   3.50000000000000E+00   0.00000000000000E+00
      3.60000000000000E-01   3.60000000000000E+00   0.00000000000000E+00
      3.70000000000000E-01   3.70000000000000E+00   0.00000000000000E+00
      3.80000000000000E-01   3.80000000000000E+00   0.00000000000000E+00
      3.90000000000000E-01   3.90000000000000E+00   0.00000000000000E+00
      4.00000000000000E-01   4.00000000000000E+00   0.00000000000000E+00
      4.10000000000000E-01   4.10000000000000E+00   0.00000000000000E+00
      4.20000000000000E-01   4.20000000000000E+00   0.00000000000000E+00
      4.30000000000000E-01   4.30000000000000E+00   0.00000000000000E+00
      4.40000000000000E-01   4.40000000000000E+00   0.00000000000000E+00
      4.50000000000000E-01   4.50000000000000E+00   0.00000000000000E+00
      4.60000000000000E-01   4.60000000000000E+00   0.00000000000000E+00
      4.70000000000000E-01   4.70000000000000E+00   0.00000000000000E+00
      4.80000000000000E-01   4.80000000000000E+00   0.00000000000000E+00
      4.90000000000000E-01   4.90000000000000E+00   0.00000000000000E+00
      5.00000000000000E-01   5.00000000000000E+00   0.00000000000000E+00
      5.10000000000000E-01   5.10000000000000E+00   0.00000000000000E+00
      5.20000000000000E-01   5.20000000000000E+00   0.00000000000000E+00
      5.30000000000000E-01   5.30000000000000E+00   0.00000000000000E+00
      5.40000000000000E-01   5.40000000000000E+00   0.00000000000000E+00
      5.50000000000000E-01   5.50000000000000E+00   0.00000000000000E+00
      5.60000000000000E-01   5.60000000000000E+00   0.00000000000000E+00
      5.70000000000000E-01   5.70000000000000E+00   0.00000000000000E+00
      5.80000000000000E-01   5.80000000000000E+00   0.00000000000000E+00
      5.90000000000000E-01   5.90000000000000E+00   0.00000000000000E+00
      6.00000000000000E-01   6.00000000000000E+00   0.00000000000000E+00
      6.10000000000000E-01   6.10000000000000E+00   0.00000000000000E+00
      6.20000000000000E-01   6.20000000000000E+00   0.00000000000000E+00
      6.30000000000000E-01   6.30000000000000E+00   0.00000000000000E+00
      6.40000000000000E-01   6.40000000000000E+00   0.00000000000000E+00
      6.50000000000000E-01   6.50000000000000E+00   0.00000000000000E+00
      6.55000000000000E-01   6.55000000000000E+00   0.00000000000000E+00
      6.63333333333334E-01   6.63333333333334E+00   0.00000000000000E+00
      6.73333333333334E-01   6.73333333333334E+00   0.00000000000000E+00
      6.83333333333334E-01   6.83333333333334E+00   0.00000000000000E+00
      6.93333333333334E-01   6.93333333333334E+00   0.00000000000000E+00
      7.03333333333334E-01   7.03333333333334E+00   0.00000000000000E+00
      7.13333333333334E-01   7.13333333333334E+00   0.00000000000000E+00
      7.23333333333334E-01   7.23333333333334E+00   0.00000000000000E+00
      7.33333333333334E-01   7.33333333333334E+00   0.00000000000000E+00
      7.43333333333334E-01   7.43333333333334E+00   0.00000000000000E+00
      7.53333333333334E-01   7.53333333333334E+00   0.00000000000000E+00
      7.63333333333334E-01   7.63333333333334E+00   0.00000000000000E+00
      7.73333333333334E-01   7.73333333333334E+00   0.00000000000000E+00
      7.83333333333334E-01   7.83333333333334E+00   0.00000000000000E+00
      7.93333333333334E-01   7.93333333333334E+00   0.00000000000000E+00
      8.03333333333334E-01   8.03333333333334E+00   0.00000000000000E+00
      8.13333333333334E-01   8.13333333333334E+00   0.00000000000000E+00
      8.23333333333334E-01   8.23333333333334E+00   0.00000000000000E+00
      8.33333333333334E-01   8.33333333333334E+00   0.00000000000000E+00
      8.43333333333334E-01   8.43333333333334E+00   0.00000000000000E+00
      8.53333333333334E-01   8.53333333333334E+00   0.00000000000000E+00
      8.63333333333334E-01   8.63333333333334E+00   0.00000000000000E+00
      8.73333333333334E-01   8.73333333333334E+00   0.00000000000000E+00
      8.83333333333334E-01   8.83333333333334E+00   0.00000000000000E+00
      8.93333333333334E-01   8.93333333333334E+00   0.00000000000000E+00
      9.03333333333334E-01   9.03333333333334E+00   0.00000000000000E+00
      9.13333333333334E-01   9.13333333333334E+00   0.00000000000000E+00
      9.23333333333334E-01   9.23333333333334E+00   0.00000000000000E+00
      9.33333333333334E-01   9.33333333333334E+00   0.00000000000000E+00
      9.43333333333334E-01   9.43333333333334E+00   0.00000000000000E+00
      9.53333333333334E-01   9.53333333333334E+00   0.00000000000000E+00
      9.63333333333334E-01   9.63333333333334E+00   0.00000000000000E+00
      9.73333333333334E-01   9.73333333333334E+00   0.00000000000000E+00
      9.83333333333334E-01   9.83333333333334E+00   0.00000000000000E+00
      9.93333333333334E-01   9.93333333333334E+00   0.00000000000000E+00
      1.00000000000000E+00   1.00000000000000E+01   0.00000000000000E+00
}
