DF-ISE text

Info {
  version   = 1.0
  type      = xyplot
  datasets  = [
    "time"
    "ntype OuterVoltage" "ntype InnerVoltage" "ntype QuasiFermiPotential" "ntype DisplacementCurrent" "ntype eCurrent"
    "ntype hCurrent" "ntype TotalCurrent" "ntype Charge" "ptype OuterVoltage" "ptype InnerVoltage"
    "ptype QuasiFermiPotential" "ptype DisplacementCurrent" "ptype eCurrent" "ptype hCurrent" "ptype TotalCurrent"
    "ptype Charge" ]
  functions = [
    Time
    OuterVoltage InnerVoltage QuasiFermiPotential DisplacementCurrent eCurrent
    hCurrent TotalCurrent Charge OuterVoltage InnerVoltage
    QuasiFermiPotential DisplacementCurrent eCurrent hCurrent TotalCurrent
    Charge ]
}

Data {
      1.00000000000000E-02
      1.00000000000000E-01   9.99999999289137E-02   0.00000000000000E+00   0.00000000000000E+00   7.10863120682321E-07
     -4.00903618500780E-17   7.10863120642231E-07   1.06448313937810E-13   0.00000000000000E+00   7.10863120642239E-11
      0.00000000000000E+00   0.00000000000000E+00  -7.10863120789996E-07   1.47741348362250E-16  -7.10863120642255E-07
     -1.08531711891687E-13
      2.00000000000000E-02
      2.00000000000000E-01   1.99999999928194E-01   0.00000000000000E+00   0.00000000000000E+00   7.18047786551235E-07
     -8.28215555847039E-18   7.18047786542953E-07   1.16106229272256E-13   0.00000000000000E+00   7.18047786542956E-11
      0.00000000000000E+00   0.00000000000000E+00  -7.18047786499768E-07  -4.32110325318595E-17  -7.18047786542979E-07
     -1.18189627279674E-13
      3.00000000000000E-02
      3.00000000000000E-01   2.99999999927514E-01   0.00000000000000E+00   0.00000000000000E+00   7.24836772039293E-07
     -7.25771869423125E-18   7.24836772032035E-07   1.25196804707945E-13   0.00000000000000E+00   7.24836772032036E-11
      0.00000000000000E+00   0.00000000000000E+00  -7.24836772042953E-07   1.09367833775170E-17  -7.24836772032016E-07
     -1.27280202774499E-13
      4.00000000000000E-02
      4.00000000000000E-01   3.99999999926865E-01   0.00000000000000E+00   0.00000000000000E+00   7.31346767066346E-07
     -6.77722672588648E-18   7.31346767059569E-07   1.33806974685959E-13   0.00000000000000E+00   7.31346767059568E-11
      0.00000000000000E+00   0.00000000000000E+00  -7.31346767005346E-07  -5.42286818264201E-17  -7.31346767059575E-07
     -1.35890372816245E-13
      5.00000000000000E-02
      5.00000000000000E-01   4.99999999926240E-01   0.00000000000000E+00   0.00000000000000E+00   7.37599115889416E-07
     -6.09134265807807E-18   7.37599115883325E-07   1.42001387152921E-13   0.00000000000000E+00   7.37599115883324E-11
      0.00000000000000E+00   0.00000000000000E+00  -7.37599115869162E-07  -1.41902557215929E-17  -7.37599115883352E-07
     -1.44084785350656E-13
      6.00000000000000E-02
      6.00000000000000E-01   5.99999999925628E-01   0.00000000000000E+00   0.00000000000000E+00   7.43727018659376E-07
     -5.39052400054073E-18   7.43727018653986E-07   1.49829825327510E-13   0.00000000000000E+00   7.43727018653987E-11
      0.00000000000000E+00   0.00000000000000E+00  -7.43727018680226E-07   2.62241862336660E-17  -7.43727018654002E-07
     -1.51913223595022E-13
      7.00000000000000E-02
      7.00000000000000E-01   6.99999999925021E-01   0.00000000000000E+00   0.00000000000000E+00   7.49762268620988E-07
     -5.06373002194755E-18   7.49762268615924E-07   1.57331939529455E-13   0.00000000000000E+00   7.49762268615924E-11
      0.00000000000000E+00   0.00000000000000E+00  -7.49762268638161E-07   2.22171243371624E-17  -7.49762268615944E-07
     -1.59415337867943E-13
      8.00000000000000E-02
      8.00000000000000E-01   7.99999999924433E-01   0.00000000000000E+00   0.00000000000000E+00   7.55623768484520E-07
     -4.96013256860711E-18   7.55623768479560E-07   1.64540391997891E-13   0.00000000000000E+00   7.55623768479560E-11
      0.00000000000000E+00   0.00000000000000E+00  -7.55623768453451E-07  -2.60961049613366E-17  -7.55623768479547E-07
     -1.66623790407780E-13
      9.00000000000000E-02
      9.00000000000000E-01   8.99999999923865E-01   0.00000000000000E+00   0.00000000000000E+00   7.61310188550057E-07
     -5.27749529213688E-18   7.61310188544779E-07   1.71482633953866E-13   0.00000000000000E+00   7.61310188544778E-11
      0.00000000000000E+00   0.00000000000000E+00  -7.61310188480463E-07  -6.43251923222588E-17  -7.61310188544788E-07
     -1.73566032434575E-13
      1.00000000000000E-01
      1.00000000000000E+00   9.99999999923312E-01   0.00000000000000E+00   0.00000000000000E+00   7.66885068340794E-07
     -9.76428390218036E-18   7.66885068331030E-07   1.78180389982245E-13   0.00000000000000E+00   7.66885068331031E-11
      0.00000000000000E+00   0.00000000000000E+00  -7.66885068246224E-07  -8.47968378328505E-17  -7.66885068331021E-07
     -1.80263788531925E-13
      1.10000000000000E-01
      1.10000000000000E+00   1.09999999992277E+00   0.00000000000000E+00   0.00000000000000E+00   7.72389837763341E-07
     -6.31219415345685E-17   7.72389837700219E-07   1.84643292635817E-13   0.00000000000000E+00   7.72389837700177E-11
      0.00000000000000E+00   0.00000000000000E+00  -7.72389837759549E-07   5.93385150378530E-17  -7.72389837700210E-07
     -1.86726691251283E-13
      1.20000000000000E-01
      1.20000000000000E+00   1.19999999992222E+00   0.00000000000000E+00   0.00000000000000E+00   7.77780079574464E-07
      1.94790396825305E-20   7.77780079574483E-07   1.90845311142424E-13   0.00000000000000E+00   7.77780079574483E-11
      0.00000000000000E+00   0.00000000000000E+00  -7.77780079553575E-07  -2.09166373891938E-17  -7.77780079574491E-07
     -1.92928709818688E-13
      1.30000000000000E-01
      1.30000000000000E+00   1.29999999992170E+00   0.00000000000000E+00   0.00000000000000E+00   7.82930506982147E-07
     -7.68049406561459E-18   7.82930506974466E-07   1.96660677888144E-13   0.00000000000000E+00   7.82930506974464E-11
      0.00000000000000E+00   0.00000000000000E+00  -7.82930506641384E-07  -3.33088072163657E-16  -7.82930506974472E-07
     -1.98744076617165E-13
      1.40000000000000E-01
      1.40000000000000E+00   1.39999999992123E+00   0.00000000000000E+00   0.00000000000000E+00   7.87819075005819E-07
     -4.37394405718852E-19   7.87819075005381E-07   2.01930098456541E-13   0.00000000000000E+00   7.87819075005378E-11
      0.00000000000000E+00   0.00000000000000E+00  -7.87819075188971E-07   1.83586218630144E-16  -7.87819075005384E-07
     -2.04013497228068E-13
      1.50000000000000E-01
      1.50000000000000E+00   1.49999999992075E+00   0.00000000000000E+00   0.00000000000000E+00   7.92498978345950E-07
      1.22050305128382E-22   7.92498978345951E-07   2.06946443782551E-13   0.00000000000000E+00   7.92498978345954E-11
      0.00000000000000E+00   0.00000000000000E+00  -7.92498978300490E-07  -4.54607999021968E-17  -7.92498978345951E-07
     -2.09029842591199E-13
      1.60000000000000E-01
      1.60000000000000E+00   1.59999999992030E+00   0.00000000000000E+00   0.00000000000000E+00   7.96930957431524E-07
     -1.97119613489105E-19   7.96930957431327E-07   2.11897581187021E-13   0.00000000000000E+00   7.96930957431326E-11
      0.00000000000000E+00   0.00000000000000E+00  -7.96930957497274E-07   6.59723606571817E-17  -7.96930957431301E-07
     -2.13980980029933E-13
      1.70000000000000E-01
      1.70000000000000E+00   1.69999999991986E+00   0.00000000000000E+00   0.00000000000000E+00   8.01361671770347E-07
     -2.11254699463185E-20   8.01361671770326E-07   2.16808532205055E-13   0.00000000000000E+00   8.01361671770325E-11
      0.00000000000000E+00   0.00000000000000E+00  -8.01361671750740E-07  -1.95933838390204E-17  -8.01361671770334E-07
     -2.18891931078489E-13
      1.80000000000000E-01
      1.80000000000000E+00   1.79999999991940E+00   0.00000000000000E+00   0.00000000000000E+00   8.05963765119122E-07
     -3.88041326168059E-20   8.05963765119083E-07   2.21687630720742E-13   0.00000000000000E+00   8.05963765119079E-11
      0.00000000000000E+00   0.00000000000000E+00  -8.05963765185939E-07   6.68681259355937E-17  -8.05963765119071E-07
     -2.23771029620197E-13
      1.90000000000000E-01
      1.90000000000000E+00   1.89999999991892E+00   0.00000000000000E+00   0.00000000000000E+00   8.10810772381135E-07
      4.93629867176647E-16   8.10810772874765E-07   2.26539982724208E-13   0.00000000000000E+00   8.10810772875751E-11
      0.00000000000000E+00   0.00000000000000E+00  -8.10810657345225E-07  -1.15529533366925E-13  -8.10810772874759E-07
     -2.28623381644812E-13
      2.00000000000000E-01
      2.00000000000000E+00   1.99999999991842E+00   0.00000000000000E+00   0.00000000000000E+00   8.15935289247515E-07
      4.84174553925674E-16   8.15935289731689E-07   2.31369063178502E-13   0.00000000000000E+00   8.15935289732349E-11
      0.00000000000000E+00   0.00000000000000E+00  -8.15935207694919E-07  -8.20367707058806E-14  -8.15935289731690E-07
     -2.33452462115208E-13
      2.10000000000000E-01
      2.10000000000000E+00   2.09999999991788E+00   0.00000000000000E+00   0.00000000000000E+00   8.21360826998720E-07
      4.83183743371871E-16   8.21360827481904E-07   2.36177343345160E-13   0.00000000000000E+00   8.21360827482206E-11
      0.00000000000000E+00   0.00000000000000E+00  -8.21360808344844E-07  -1.91370618827511E-14  -8.21360827481906E-07
     -2.38260742292882E-13
      2.20000000000000E-01
      2.20000000000000E+00   2.19999999991729E+00   0.00000000000000E+00   0.00000000000000E+00   8.27142669251289E-07
      4.85537543620097E-16   8.27142669736826E-07   2.40966657178574E-13   0.00000000000000E+00   8.27142669736916E-11
      0.00000000000000E+00   0.00000000000000E+00  -8.27142661565177E-07  -8.17167479721041E-15  -8.27142669736852E-07
     -2.43050056132138E-13
      2.30000000000000E-01
      2.30000000000000E+00   2.29999999991666E+00   0.00000000000000E+00   0.00000000000000E+00   8.33391688742886E-07
      4.85899286042008E-16   8.33391689228786E-07   2.45738429372825E-13   0.00000000000000E+00   8.33391689228825E-11
      0.00000000000000E+00   0.00000000000000E+00  -8.33391678213245E-07  -1.10155577241191E-14  -8.33391689228803E-07
     -2.47821828326796E-13
      2.40000000000000E-01
      2.40000000000000E+00   2.39999999991598E+00   0.00000000000000E+00   0.00000000000000E+00   8.40242868665807E-07
      4.85611697314900E-16   8.40242869151418E-07   2.50493816668880E-13   0.00000000000000E+00   8.40242869151517E-11
      0.00000000000000E+00   0.00000000000000E+00  -8.40242835987454E-07  -3.31639530339101E-14  -8.40242869151407E-07
     -2.52577215617505E-13
      2.50000000000000E-01
      2.50000000000000E+00   2.49999999991523E+00   0.00000000000000E+00   0.00000000000000E+00   8.47834510860904E-07
      4.87661685089941E-16   8.47834511348565E-07   2.55233791200730E-13   0.00000000000000E+00   8.47834511348802E-11
      0.00000000000000E+00   0.00000000000000E+00  -8.47834397068374E-07  -1.14280182482669E-13  -8.47834511348557E-07
     -2.57317190137932E-13
      2.60000000000000E-01
      2.60000000000000E+00   2.59999999991438E+00   0.00000000000000E+00   0.00000000000000E+00   8.56314967865084E-07
      4.91594260714620E-16   8.56314968356678E-07   2.59959186186526E-13   0.00000000000000E+00   8.56314968357097E-11
      0.00000000000000E+00   0.00000000000000E+00  -8.56314830174789E-07  -1.38181934001462E-13  -8.56314968356723E-07
     -2.62042585105847E-13
      2.70000000000000E-01
      2.70000000000000E+00   2.69999999991339E+00   0.00000000000000E+00   0.00000000000000E+00   8.65836225143887E-07
      4.98826125873448E-16   8.65836225642713E-07   2.64670719777869E-13   0.00000000000000E+00   8.65836225643252E-11
      0.00000000000000E+00   0.00000000000000E+00  -8.65836145284333E-07  -8.03583942846840E-14  -8.65836225642727E-07
     -2.66754118672411E-13
      2.80000000000000E-01
      2.80000000000000E+00   2.79999999991234E+00   0.00000000000000E+00   0.00000000000000E+00   8.76528135604151E-07
      5.12333445023009E-16   8.76528136116484E-07   2.69369007786621E-13   0.00000000000000E+00   8.76528136116975E-11
      0.00000000000000E+00   0.00000000000000E+00  -8.76528100887432E-07  -3.52290648515652E-14  -8.76528136116497E-07
     -2.71452406649087E-13
      2.90000000000000E-01
      2.90000000000000E+00   2.89999999991113E+00   0.00000000000000E+00   0.00000000000000E+00   8.88488521209880E-07
      5.31051742385940E-16   8.88488521740931E-07   2.74054571651225E-13   0.00000000000000E+00   8.88488521741246E-11
      0.00000000000000E+00   0.00000000000000E+00  -8.88488471182477E-07  -5.05584641638426E-14  -8.88488521740941E-07
     -2.76137970473970E-13
      3.00000000000000E-01
      3.00000000000000E+00   2.99999999990982E+00   0.00000000000000E+00   0.00000000000000E+00   9.01817276204217E-07
      5.51319146707818E-16   9.01817276755536E-07   2.78727845397019E-13   0.00000000000000E+00   9.01817276755669E-11
      0.00000000000000E+00   0.00000000000000E+00  -9.01817115315703E-07  -1.61439806316366E-13  -9.01817276755510E-07
     -2.80811244171945E-13
      3.10000000000000E-01
      3.10000000000000E+00   3.09999999990831E+00   0.00000000000000E+00   0.00000000000000E+00   9.16669153646333E-07
      5.71768952240458E-16   9.16669154218102E-07   2.83389184387435E-13   0.00000000000000E+00   9.16669154218131E-11
      0.00000000000000E+00   0.00000000000000E+00  -9.16668993480681E-07  -1.60737431667441E-13  -9.16669154218113E-07
     -2.85472583105690E-13
      3.20000000000000E-01
      3.20000000000000E+00   3.19999999990669E+00   0.00000000000000E+00   0.00000000000000E+00   9.33274918141540E-07
      5.92079573711308E-16   9.33274918733619E-07   2.88038877569870E-13   0.00000000000000E+00   9.33274918733607E-11
      0.00000000000000E+00   0.00000000000000E+00  -9.33274887689705E-07  -3.10439098218701E-14  -9.33274918733615E-07
     -2.90122276221349E-13
      3.30000000000000E-01
      3.30000000000000E+00   3.29999999990480E+00   0.00000000000000E+00   0.00000000000000E+00   9.51929372461515E-07
      6.12421688953786E-16   9.51929373073936E-07   2.92677162502722E-13   0.00000000000000E+00   9.51929373073927E-11
      0.00000000000000E+00   0.00000000000000E+00  -9.51929375893540E-07   2.81957635354190E-15  -9.51929373073964E-07
     -2.94760561075636E-13
      3.40000000000000E-01
      3.40000000000000E+00   3.39999999990272E+00   0.00000000000000E+00   0.00000000000000E+00   9.72977932491113E-07
      6.31629907312438E-16   9.72977933122743E-07   2.97304241013642E-13   0.00000000000000E+00   9.72977933122764E-11
      0.00000000000000E+00   0.00000000000000E+00  -9.72977930681465E-07  -2.44129142367221E-15  -9.72977933122756E-07
     -2.99387639494036E-13
      3.50000000000000E-01
      3.50000000000000E+00   3.49999999990033E+00   0.00000000000000E+00   0.00000000000000E+00   9.96815270391607E-07
      6.48131127062357E-16   9.96815271039738E-07   3.01920293516452E-13   0.00000000000000E+00   9.96815271039823E-11
      0.00000000000000E+00   0.00000000000000E+00  -9.96815265960712E-07  -5.07899996425888E-15  -9.96815271039712E-07
     -3.04003691887721E-13
      3.60000000000000E-01
      3.60000000000000E+00   3.59999999989760E+00   0.00000000000000E+00   0.00000000000000E+00   1.02389506118856E-06
      6.61219428882839E-16   1.02389506184978E-06   3.06525490505463E-13   0.00000000000000E+00   1.02389506184995E-10
      0.00000000000000E+00   0.00000000000000E+00  -1.02389505787032E-06  -3.97944730664751E-15  -1.02389506184977E-06
     -3.08608888747664E-13
      3.70000000000000E-01
      3.70000000000000E+00   3.69999999989454E+00   0.00000000000000E+00   0.00000000000000E+00   1.05474282396872E-06
      6.71812706134789E-16   1.05474282464053E-06   3.11120000317821E-13   0.00000000000000E+00   1.05474282464078E-10
      0.00000000000000E+00   0.00000000000000E+00  -1.05474282281494E-06  -1.82560685771898E-15  -1.05474282464055E-06
     -3.13203398406921E-13
      3.80000000000000E-01
      3.80000000000000E+00   3.79999999989101E+00   0.00000000000000E+00   0.00000000000000E+00   1.08996509116344E-06
      6.83054152863923E-16   1.08996509184649E-06   3.15703992810209E-13   0.00000000000000E+00   1.08996509184674E-10
      0.00000000000000E+00   0.00000000000000E+00  -1.08996509147152E-06  -3.74977320443199E-16  -1.08996509184649E-06
     -3.17787390716985E-13
      3.90000000000000E-01
      3.90000000000000E+00   3.89999999988698E+00   0.00000000000000E+00   0.00000000000000E+00   1.13025601180747E-06
      6.98884483958398E-16   1.13025601250636E-06   3.20277639075540E-13   0.00000000000000E+00   1.13025601250655E-10
      0.00000000000000E+00   0.00000000000000E+00  -1.13025601236971E-06  -1.36674193467890E-16  -1.13025601250638E-06
     -3.22361036764379E-13
      4.00000000000000E-01
      4.00000000000000E+00   3.99999999988237E+00   0.00000000000000E+00   0.00000000000000E+00   1.17641857929807E-06
      7.20894872148917E-16   1.17641858001896E-06   3.24841107556891E-13   0.00000000000000E+00   1.17641858001906E-10
      0.00000000000000E+00   0.00000000000000E+00  -1.17641857280895E-06  -7.21000531168195E-15  -1.17641858001895E-06
     -3.26924504984095E-13
      4.10000000000000E-01
      4.10000000000000E+00   4.09999999987706E+00   0.00000000000000E+00   0.00000000000000E+00   1.22942049600693E-06
      7.47911448401668E-16   1.22942049675484E-06   3.29394557306256E-13   0.00000000000000E+00   1.22942049675487E-10
      0.00000000000000E+00   0.00000000000000E+00  -1.22942045734449E-06  -3.94103848534080E-14  -1.22942049675487E-06
     -3.31477954417741E-13
      4.20000000000000E-01
      4.20000000000000E+00   4.19999999987095E+00   0.00000000000000E+00   0.00000000000000E+00   1.29047229130192E-06
      7.78393297506862E-16   1.29047229208031E-06   3.33938130119398E-13   0.00000000000000E+00   1.29047229208029E-10
      0.00000000000000E+00   0.00000000000000E+00  -1.29047217746421E-06  -1.14616093236298E-13  -1.29047229208030E-06
     -3.36021526847276E-13
      4.30000000000000E-01
      4.30000000000000E+00   4.29999999986389E+00   0.00000000000000E+00   0.00000000000000E+00   1.36109397353869E-06
      8.11322943855523E-16   1.36109397435001E-06   3.38471943704306E-13   0.00000000000000E+00   1.36109397434994E-10
      0.00000000000000E+00   0.00000000000000E+00  -1.36109384374612E-06  -1.30603869003909E-13  -1.36109397434999E-06
     -3.40555339962192E-13
      4.40000000000000E-01
      4.40000000000000E+00   4.39999999985570E+00   0.00000000000000E+00   0.00000000000000E+00   1.44316914867844E-06
      8.46107103817167E-16   1.44316914952455E-06   3.42996086982588E-13   0.00000000000000E+00   1.44316914952446E-10
      0.00000000000000E+00   0.00000000000000E+00  -1.44316908195583E-06  -6.75687453009563E-14  -1.44316914952457E-06
     -3.45079482659236E-13
      4.50000000000000E-01
      4.50000000000000E+00   4.49999999984608E+00   0.00000000000000E+00   0.00000000000000E+00   1.53901722170577E-06
      8.82522579313910E-16   1.53901722258830E-06   3.47510617471022E-13   0.00000000000000E+00   1.53901722258823E-10
      0.00000000000000E+00   0.00000000000000E+00  -1.53901721295175E-06  -9.63656089895077E-15  -1.53901722258831E-06
     -3.49594012421615E-13
      4.60000000000000E-01
      4.60000000000000E+00   4.59999999983483E+00   0.00000000000000E+00   0.00000000000000E+00   1.65150314572555E-06
      9.19442905704457E-16   1.65150314664500E-06   3.52015560499228E-13   0.00000000000000E+00   1.65150314664498E-10
      0.00000000000000E+00   0.00000000000000E+00  -1.65150314863595E-06   1.99092786246972E-15  -1.65150314664502E-06
     -3.54098954533117E-13
      4.70000000000000E-01
      4.70000000000000E+00   4.69999999982157E+00   0.00000000000000E+00   0.00000000000000E+00   1.78418869858907E-06
      9.53454694139608E-16   1.78418869954253E-06   3.56510909901353E-13   0.00000000000000E+00   1.78418869954257E-10
      0.00000000000000E+00   0.00000000000000E+00  -1.78418870141131E-06   1.86879313686277E-15  -1.78418869954252E-06
     -3.58594302764626E-13
      4.80000000000000E-01
      4.80000000000000E+00   4.79999999980586E+00   0.00000000000000E+00   0.00000000000000E+00   1.94153817801304E-06
      9.81608313311815E-16   1.94153817899465E-06   3.60996629242818E-13   0.00000000000000E+00   1.94153817899469E-10
      0.00000000000000E+00   0.00000000000000E+00  -1.94153818317717E-06   4.18253867178630E-15  -1.94153817899463E-06
     -3.63080020592970E-13
      4.90000000000000E-01
      4.90000000000000E+00   4.89999999978710E+00   0.00000000000000E+00   0.00000000000000E+00   2.12921483273854E-06
      1.00460621436895E-15   2.12921483374315E-06   3.65472651860587E-13   0.00000000000000E+00   2.12921483374313E-10
      0.00000000000000E+00   0.00000000000000E+00  -2.12921484098711E-06   7.24397070343034E-15  -2.12921483374314E-06
     -3.67556041229247E-13
      5.00000000000000E-01
      5.00000000000000E+00   4.99999999976453E+00   0.00000000000000E+00   0.00000000000000E+00   2.35451643389724E-06
      1.02451886746296E-15   2.35451643492175E-06   3.69938877609162E-13   0.00000000000000E+00   2.35451643492166E-10
      0.00000000000000E+00   0.00000000000000E+00  -2.35451644591777E-06   1.09960187672282E-14  -2.35451643492175E-06
     -3.72022264345609E-13
      5.10000000000000E-01
      5.10000000000000E+00   5.09999999973730E+00   0.00000000000000E+00   0.00000000000000E+00   2.62700527235377E-06
      1.04192281474328E-15   2.62700527339569E-06   3.74395164102018E-13   0.00000000000000E+00   2.62700527339554E-10
      0.00000000000000E+00   0.00000000000000E+00  -2.62700528649189E-06   1.30962709880706E-14  -2.62700527339562E-06
     -3.76478547286052E-13
      5.20000000000000E-01
      5.20000000000000E+00   5.19999999970409E+00   0.00000000000000E+00   0.00000000000000E+00   2.95944712822284E-06
      1.05635204694814E-15   2.95944712927919E-06   3.78841309057986E-13   0.00000000000000E+00   2.95944712927897E-10
      0.00000000000000E+00   0.00000000000000E+00  -2.95944714405539E-06   1.47762754689229E-14  -2.95944712927912E-06
     -3.80924687361823E-13
      5.30000000000000E-01
      5.30000000000000E+00   5.29999999966304E+00   0.00000000000000E+00   0.00000000000000E+00   3.36932591900621E-06
      1.06592498621443E-15   3.36932592007213E-06   3.83277017183108E-13   0.00000000000000E+00   3.36932592007182E-10
      0.00000000000000E+00   0.00000000000000E+00  -3.36932593558065E-06   1.55085443382002E-14  -3.36932592007211E-06
     -3.85360388644685E-13
      5.40000000000000E-01
      5.40000000000000E+00   5.39999999961188E+00   0.00000000000000E+00   0.00000000000000E+00   3.88152934923046E-06
     -3.02398532551493E-20   3.88152934923043E-06   3.87701837911733E-13   0.00000000000000E+00   3.88152934923044E-10
      0.00000000000000E+00   0.00000000000000E+00  -3.88152934920218E-06  -2.82494885021850E-17  -3.88152934923043E-06
     -3.89785199543254E-13
      5.50000000000000E-01
      5.50000000000000E+00   5.49999999954661E+00   0.00000000000000E+00   0.00000000000000E+00   4.53372781871203E-06
     -4.63423928481271E-20   4.53372781871199E-06   3.92115039244427E-13   0.00000000000000E+00   4.53372781871198E-10
      0.00000000000000E+00   0.00000000000000E+00  -4.53372781864366E-06  -6.82921005770832E-17  -4.53372781871195E-06
     -3.94198386301661E-13
      5.60000000000000E-01
      5.60000000000000E+00   5.59999999946108E+00   0.00000000000000E+00   0.00000000000000E+00   5.38933584654962E-06
     -6.88633743723031E-20   5.38933584654955E-06   3.96515302819080E-13   0.00000000000000E+00   5.38933584654955E-10
      0.00000000000000E+00   0.00000000000000E+00  -5.38933584644707E-06  -1.02478803969142E-16  -5.38933584654955E-06
     -3.98598627244866E-13
      5.70000000000000E-01
      5.70000000000000E+00   5.69999999934196E+00   0.00000000000000E+00   0.00000000000000E+00   6.58014672263407E-06
      3.12854895418289E-19   6.58014672263438E-06   4.00899692879687E-13   0.00000000000000E+00   6.58014672263438E-10
      0.00000000000000E+00   0.00000000000000E+00  -6.58014672242811E-06  -2.06208301364937E-16  -6.58014672263432E-06
     -4.02982978987381E-13
      5.80000000000000E-01
      5.80000000000000E+00   5.79999999914285E+00   0.00000000000000E+00   0.00000000000000E+00   8.57126757296747E-06
     -2.28374482445532E-20   8.57126757296745E-06   4.05256695068375E-13   0.00000000000000E+00   8.57126757296745E-10
      0.00000000000000E+00   0.00000000000000E+00  -8.57126757294493E-06  -2.26514690412462E-17  -8.57126757296759E-06
     -4.07339896235364E-13
      5.85000000000000E-01
      5.85000000000000E+00   5.84999999890453E+00   0.00000000000000E+00   0.00000000000000E+00   1.09550044974661E-05
     -1.17153603682983E-18   1.09550044974649E-05   4.07394405895509E-13   0.00000000000000E+00   1.09550044974650E-09
      0.00000000000000E+00   0.00000000000000E+00  -1.09550044976536E-05   1.88631704945696E-16  -1.09550044974650E-05
     -4.09477453271370E-13
      5.87250000000000E-01
      5.87250000000000E+00   5.87249999856598E+00   0.00000000000000E+00   0.00000000000000E+00   1.43399937816160E-05
      3.95626172082770E-17   1.43399937816555E-05   4.08287421841459E-13   0.00000000000000E+00   1.43399937816556E-09
      0.00000000000000E+00   0.00000000000000E+00  -1.43399937830988E-05   1.44327842366435E-15  -1.43399937816555E-05
     -4.10370126146782E-13
      5.91300000000000E-01
      5.91300000000000E+00   5.91299999617587E+00   0.00000000000000E+00   0.00000000000000E+00   3.82415304832837E-05
     -2.81895161381121E-19   3.82415304832834E-05   4.09357214242874E-13   0.00000000000000E+00   3.82415304832835E-09
      0.00000000000000E+00   0.00000000000000E+00  -3.82415304831786E-05  -1.05243873867194E-16  -3.82415304832838E-05
     -4.11433639098334E-13
      5.97510000000000E-01
      5.97510000000000E+00   5.97509999059432E+00   0.00000000000000E+00   0.00000000000000E+00   9.40570077644814E-05
     -6.62584968335047E-18   9.40570077644748E-05   4.10527784363655E-13   0.00000000000000E+00   9.40570077644747E-09
      0.00000000000000E+00   0.00000000000000E+00  -9.40570077641347E-05  -3.40409799802549E-16  -9.40570077644751E-05
     -4.12567638500316E-13
      5.98760000000000E-01
      5.98760000000000E+00   5.98759998875564E+00   0.00000000000000E+00   0.00000000000000E+00   1.12443513294715E-04
     -9.56790058685945E-17   1.12443513294620E-04   4.10720386125781E-13   0.00000000000000E+00   1.12443513294620E-08
      0.00000000000000E+00   0.00000000000000E+00  -1.12443513288232E-04  -6.38928331237777E-15  -1.12443513294621E-04
     -4.12748151542659E-13
      6.01010000000000E-01
      6.01010000000000E+00   6.01009998198293E+00   0.00000000000000E+00   0.00000000000000E+00   1.80170980541703E-04
      2.03617064091278E-18   1.80170980541705E-04   4.10883834809797E-13   0.00000000000000E+00   1.80170980541705E-08
      0.00000000000000E+00   0.00000000000000E+00  -1.80170980541736E-04   2.91828983514190E-17  -1.80170980541707E-04
     -4.12882198387353E-13
      6.04910000000000E-01
      6.04910000000000E+00   6.04909996701612E+00   0.00000000000000E+00   0.00000000000000E+00   3.29838505038621E-04
     -2.63314136521081E-17   3.29838505038594E-04   4.10997555178014E-13   0.00000000000000E+00   3.29838505038594E-08
      0.00000000000000E+00   0.00000000000000E+00  -3.29838505035184E-04  -3.41809588230209E-15  -3.29838505038602E-04
     -4.12915490896367E-13
      6.11670000000000E-01
      6.11670000000000E+00   6.11669994042593E+00   0.00000000000000E+00   0.00000000000000E+00   5.95740627467531E-04
     -1.59265927371776E-19   5.95740627467531E-04   4.11162718585854E-13   0.00000000000000E+00   5.95740627467530E-08
      0.00000000000000E+00   0.00000000000000E+00  -5.95740627467479E-04  -5.62515835252571E-17  -5.95740627467535E-04
     -4.12837586199284E-13
      6.21670000000000E-01
      6.21670000000000E+00   6.21669990086953E+00   0.00000000000000E+00   0.00000000000000E+00   9.91304925706854E-04
     -1.09752141375983E-15   9.91304925705756E-04   4.11399000230225E-13   0.00000000000000E+00   9.91304925705761E-08
      0.00000000000000E+00   0.00000000000000E+00  -9.91304925294134E-04  -4.11633357510869E-13  -9.91304925705768E-04
     -4.12560504927509E-13
      6.31670000000000E-01
      6.31670000000000E+00   6.31669986121146E+00   0.00000000000000E+00   0.00000000000000E+00   1.38788499122125E-03
     -1.68331366078045E-16   1.38788499122108E-03   4.11632027615622E-13   0.00000000000000E+00   1.38788499122108E-07
      0.00000000000000E+00   0.00000000000000E+00  -1.38788499110079E-03  -1.20302454962637E-13  -1.38788499122109E-03
     -4.12489546094380E-13
      6.41670000000000E-01
      6.41670000000000E+00   6.41669982149763E+00   0.00000000000000E+00   0.00000000000000E+00   1.78502340537682E-03
     -1.87248066000290E-18   1.78502340537682E-03   4.11862693215327E-13   0.00000000000000E+00   1.78502340537682E-07
      0.00000000000000E+00   0.00000000000000E+00  -1.78502340537401E-03  -2.82307031239357E-15  -1.78502340537684E-03
     -4.12623742111952E-13
      6.51670000000000E-01
      6.51670000000000E+00   6.51669978174269E+00   0.00000000000000E+00   0.00000000000000E+00   2.18257293733246E-03
      1.70879067909301E-19   2.18257293733246E-03   4.12091416718739E-13   0.00000000000000E+00   2.18257293733246E-07
      0.00000000000000E+00   0.00000000000000E+00  -2.18257293733250E-03   5.70669522821839E-17  -2.18257293733244E-03
     -4.12803585949150E-13
      6.61670000000000E-01
      6.61670000000000E+00   6.61669974195006E+00   0.00000000000000E+00   0.00000000000000E+00   2.58049915007498E-03
      3.13057088490147E-18   2.58049915007499E-03   4.12318365904445E-13   0.00000000000000E+00   2.58049915007499E-07
      0.00000000000000E+00   0.00000000000000E+00  -2.58049915008406E-03   9.02932677580169E-15  -2.58049915007503E-03
     -4.12995623533608E-13
      6.71670000000000E-01