DF-ISE text

Info {
  version   = 1.0
  type      = xyplot
  datasets  = [
    "time"
    "ntype OuterVoltage" "ntype InnerVoltage" "ntype QuasiFermiPotential" "ntype DisplacementCurrent" "ntype eCurrent"
    "ntype hCurrent" "ntype TotalCurrent" "ntype Charge" "ptype OuterVoltage" "ptype InnerVoltage"
    "ptype QuasiFermiPotential" "ptype DisplacementCurrent" "ptype eCurrent" "ptype hCurrent" "ptype TotalCurrent"
    "ptype Charge" ]
  functions = [
    Time
    OuterVoltage InnerVoltage QuasiFermiPotential DisplacementCurrent eCurrent
    hCurrent TotalCurrent Charge OuterVoltage InnerVoltage
    QuasiFermiPotential DisplacementCurrent eCurrent hCurrent TotalCurrent
    Charge ]
}

Data {
      1.00000000000000E-02
      1.00000000000000E-01   9.99999992097880E-02   0.00000000000000E+00   0.00000000000000E+00   7.90211966279554E-06
     -2.23522831603911E-17   7.90211966277318E-06   1.06365787324497E-13   0.00000000000000E+00   7.90211966277317E-10
      0.00000000000000E+00   0.00000000000000E+00  -7.90211966273189E-06  -4.13862803057180E-17  -7.90211966277327E-06
     -1.07975208488439E-13
      2.00000000000000E-02
      2.00000000000000E-01   1.99999999203327E-01   0.00000000000000E+00   0.00000000000000E+00   7.96672539386065E-06
     -8.43343954439931E-18   7.96672539385222E-06   1.16109671868896E-13   0.00000000000000E+00   7.96672539385224E-10
      0.00000000000000E+00   0.00000000000000E+00  -7.96672539399071E-06   1.38463173615969E-16  -7.96672539385224E-06
     -1.17719090603233E-13
      3.00000000000000E-02
      3.00000000000000E-01   2.99999999197173E-01   0.00000000000000E+00   0.00000000000000E+00   8.02827968240666E-06
     -9.80405367007908E-18   8.02827968239686E-06   1.25300649660734E-13   0.00000000000000E+00   8.02827968239688E-10
      0.00000000000000E+00   0.00000000000000E+00  -8.02827968226309E-06  -1.33764845525868E-16  -8.02827968239686E-06
     -1.26910066116596E-13
      4.00000000000000E-02
      4.00000000000000E-01   3.99999999191245E-01   0.00000000000000E+00   0.00000000000000E+00   8.08756534031053E-06
     -8.72750355323821E-18   8.08756534030180E-06   1.34028958886861E-13   0.00000000000000E+00   8.08756534030179E-10
      0.00000000000000E+00   0.00000000000000E+00  -8.08756534017574E-06  -1.26065122811992E-16  -8.08756534030180E-06
     -1.35638373180234E-13
      5.00000000000000E-02
      5.00000000000000E-01   4.99999999185493E-01   0.00000000000000E+00   0.00000000000000E+00   8.14506120964498E-06
     -7.85740854811477E-18   8.14506120963713E-06   1.42362296800779E-13   0.00000000000000E+00   8.14506120963708E-10
      0.00000000000000E+00   0.00000000000000E+00  -8.14506120953027E-06  -1.06787199001970E-16  -8.14506120963705E-06
     -1.43971709022701E-13
      6.00000000000000E-02
      6.00000000000000E-01   5.99999999179868E-01   0.00000000000000E+00   0.00000000000000E+00   8.20128216986996E-06
     -6.45763196014768E-18   8.20128216986350E-06   1.50353103495083E-13   0.00000000000000E+00   8.20128216986355E-10
      0.00000000000000E+00   0.00000000000000E+00  -8.20128216980075E-06  -6.28550954930272E-17  -8.20128216986360E-06
     -1.51962513708718E-13
      7.00000000000000E-02
      7.00000000000000E-01   6.99999999174323E-01   0.00000000000000E+00   0.00000000000000E+00   8.25671482964967E-06
     -5.22444917827046E-18   8.25671482964445E-06   1.58043034598491E-13   0.00000000000000E+00   8.25671482964444E-10
      0.00000000000000E+00   0.00000000000000E+00  -8.25671482957412E-06  -7.03890523315503E-17  -8.25671482964450E-06
     -1.59652442838937E-13
      8.00000000000000E-02
      8.00000000000000E-01   7.99999999168834E-01   0.00000000000000E+00   0.00000000000000E+00   8.31168302785116E-06
     -4.39359442633699E-18   8.31168302784676E-06   1.65465825404042E-13   0.00000000000000E+00   8.31168302784676E-10
      0.00000000000000E+00   0.00000000000000E+00  -8.31168302778793E-06  -5.88585982401368E-17  -8.31168302784679E-06
     -1.67075231684104E-13
      9.00000000000000E-02
      9.00000000000000E-01   8.99999999163341E-01   0.00000000000000E+00   0.00000000000000E+00   8.36653530849831E-06
     -3.46967145633275E-18   8.36653530849484E-06   1.72649192994144E-13   0.00000000000000E+00   8.36653530849483E-10
      0.00000000000000E+00   0.00000000000000E+00  -8.36653530843236E-06  -6.25019613122197E-17  -8.36653530849486E-06
     -1.74258597302977E-13
      1.00000000000000E-01
      1.00000000000000E+00   9.99999999157831E-01   0.00000000000000E+00   0.00000000000000E+00   8.42172292930601E-06
     -2.95804305778174E-18   8.42172292930305E-06   1.79616170573699E-13   0.00000000000000E+00   8.42172292930304E-10
      0.00000000000000E+00   0.00000000000000E+00  -8.42172292924914E-06  -5.38335959543535E-17  -8.42172292930297E-06
     -1.81225572872436E-13
      1.10000000000000E-01
      1.10000000000000E+00   1.09999999915223E+00   0.00000000000000E+00   0.00000000000000E+00   8.47774566108320E-06
     -2.40372729498929E-18   8.47774566108079E-06   1.86386090387489E-13   0.00000000000000E+00   8.47774566108078E-10
      0.00000000000000E+00   0.00000000000000E+00  -8.47774566103429E-06  -4.64634175041477E-17  -8.47774566108076E-06
     -1.87995490607232E-13
      1.20000000000000E-01
      1.20000000000000E+00   1.19999999914650E+00   0.00000000000000E+00   0.00000000000000E+00   8.53509164632729E-06
     -2.04584393766260E-18   8.53509164632524E-06   1.92975332665001E-13   0.00000000000000E+00   8.53509164632526E-10
      0.00000000000000E+00   0.00000000000000E+00  -8.53509164628424E-06  -4.09841796040899E-17  -8.53509164632523E-06
     -1.94584730707613E-13
      1.30000000000000E-01
      1.30000000000000E+00   1.29999999914058E+00   0.00000000000000E+00   0.00000000000000E+00   8.59417347958947E-06
     -1.71719270850535E-18   8.59417347958775E-06   1.99397909154286E-13   0.00000000000000E+00   8.59417347958776E-10
      0.00000000000000E+00   0.00000000000000E+00  -8.59417347952604E-06  -6.18067749828454E-17  -8.59417347958784E-06
     -2.01007304895916E-13
      1.40000000000000E-01
      1.40000000000000E+00   1.39999999913446E+00   0.00000000000000E+00   0.00000000000000E+00   8.65542712344980E-06
     -1.48752859717200E-18   8.65542712344831E-06   2.05665917449750E-13   0.00000000000000E+00   8.65542712344834E-10
      0.00000000000000E+00   0.00000000000000E+00  -8.65542712340302E-06  -4.52112132057786E-17  -8.65542712344823E-06
     -2.07275310740199E-13
      1.50000000000000E-01
      1.50000000000000E+00   1.49999999912807E+00   0.00000000000000E+00   0.00000000000000E+00   8.71933292979045E-06
     -1.25365267022053E-18   8.71933292978920E-06   2.11789901159918E-13   0.00000000000000E+00   8.71933292978921E-10
      0.00000000000000E+00   0.00000000000000E+00  -8.71933292976003E-06  -2.92389472767111E-17  -8.71933292978927E-06
     -2.13399291820959E-13
      1.60000000000000E-01
      1.60000000000000E+00   1.59999999912135E+00   0.00000000000000E+00   0.00000000000000E+00   8.78647667678554E-06
     -1.09641623420571E-18   8.78647667678445E-06   2.17779132317387E-13   0.00000000000000E+00   8.78647667678442E-10
      0.00000000000000E+00   0.00000000000000E+00  -8.78647667675396E-06  -3.04463323530584E-17  -8.78647667678441E-06
     -2.19388520138290E-13
      1.70000000000000E-01
      1.70000000000000E+00   1.69999999911425E+00   0.00000000000000E+00   0.00000000000000E+00   8.85746796602372E-06
     -9.50071437809603E-19   8.85746796602277E-06   2.23641837327150E-13   0.00000000000000E+00   8.85746796602280E-10
      0.00000000000000E+00   0.00000000000000E+00  -8.85746796599897E-06  -2.38181662758927E-17  -8.85746796602279E-06
     -2.25251222063494E-13
      1.80000000000000E-01
      1.80000000000000E+00   1.79999999910671E+00   0.00000000000000E+00   0.00000000000000E+00   8.93296519798910E-06
     -8.48378691540156E-19   8.93296519798826E-06   2.29385371997586E-13   0.00000000000000E+00   8.93296519798821E-10
      0.00000000000000E+00   0.00000000000000E+00  -8.93296519794052E-06  -4.77380827587364E-17  -8.93296519798826E-06
     -2.30994753368696E-13
      1.90000000000000E-01
      1.90000000000000E+00   1.89999999909863E+00   0.00000000000000E+00   0.00000000000000E+00   9.01362164937989E-06
     -7.24644524237481E-19   9.01362164937916E-06   2.35016361434900E-13   0.00000000000000E+00   9.01362164937919E-10
      0.00000000000000E+00   0.00000000000000E+00  -9.01362164936118E-06  -1.80310257780904E-17  -9.01362164937921E-06
     -2.36625739123422E-13
      2.00000000000000E-01
      2.00000000000000E+00   1.99999999908998E+00   0.00000000000000E+00   0.00000000000000E+00   9.10010786827987E-06
     -6.69430262306836E-19   9.10010786827920E-06   2.40540808517101E-13   0.00000000000000E+00   9.10010786827917E-10
      0.00000000000000E+00   0.00000000000000E+00  -9.10010786827299E-06  -6.20011483927896E-18  -9.10010786827919E-06
     -2.42150182167351E-13
      2.10000000000000E-01
      2.10000000000000E+00   2.09999999908069E+00   0.00000000000000E+00   0.00000000000000E+00   9.19310808405376E-06
     -5.78386135137042E-19   9.19310808405319E-06   2.45964179895234E-13   0.00000000000000E+00   9.19310808405322E-10
      0.00000000000000E+00   0.00000000000000E+00  -9.19310808401082E-06  -4.24981505851346E-17  -9.19310808405332E-06
     -2.47573549111405E-13
      2.20000000000000E-01
      2.20000000000000E+00   2.19999999907067E+00   0.00000000000000E+00   0.00000000000000E+00   9.29333817066154E-06
     -5.24649437962288E-19   9.29333817066101E-06   2.51291472874710E-13   0.00000000000000E+00   9.29333817066104E-10
      0.00000000000000E+00   0.00000000000000E+00  -9.29333817061854E-06  -4.25624364948286E-17  -9.29333817066110E-06
     -2.52900837217709E-13
      2.30000000000000E-01
      2.30000000000000E+00   2.29999999905985E+00   0.00000000000000E+00   0.00000000000000E+00   9.40159735490820E-06
     -4.71374479773749E-19   9.40159735490773E-06   2.56527266490020E-13   0.00000000000000E+00   9.40159735490776E-10
      0.00000000000000E+00   0.00000000000000E+00  -9.40159735486596E-06  -4.17685273846172E-17  -9.40159735490773E-06
     -2.58136625470950E-13
      2.40000000000000E-01
      2.40000000000000E+00   2.39999999904812E+00   0.00000000000000E+00   0.00000000000000E+00   9.51873309953070E-06
     -4.21586596010936E-19   9.51873309953028E-06   2.61675763118993E-13   0.00000000000000E+00   9.51873309953026E-10
      0.00000000000000E+00   0.00000000000000E+00  -9.51873309949833E-06  -3.18456175057571E-17  -9.51873309953017E-06
     -2.63285116193605E-13
      2.50000000000000E-01
      2.50000000000000E+00   2.49999999903542E+00   0.00000000000000E+00   0.00000000000000E+00   9.64569861254447E-06
     -3.86431787769178E-19   9.64569861254408E-06   2.66740818428798E-13   0.00000000000000E+00   9.64569861254407E-10
      0.00000000000000E+00   0.00000000000000E+00  -9.64569861251267E-06  -3.13851255714916E-17  -9.64569861254405E-06
     -2.68350164988472E-13
      2.60000000000000E-01
      2.60000000000000E+00   2.59999999902167E+00   0.00000000000000E+00   0.00000000000000E+00   9.78350141543379E-06
     -3.48279726459003E-19   9.78350141543344E-06   2.71725967137873E-13   0.00000000000000E+00   9.78350141543345E-10
      0.00000000000000E+00   0.00000000000000E+00  -9.78350141539839E-06  -3.50888017448024E-17  -9.78350141543348E-06
     -2.73335306502428E-13
      2.70000000000000E-01
      2.70000000000000E+00   2.69999999900666E+00   0.00000000000000E+00   0.00000000000000E+00   9.93324133001199E-06
     -3.25147413317989E-19   9.93324133001167E-06   2.76634441738444E-13   0.00000000000000E+00   9.93324133001169E-10
      0.00000000000000E+00   0.00000000000000E+00  -9.93324132998348E-06  -2.82452866444541E-17  -9.93324133001172E-06
     -2.78243773146170E-13
      2.80000000000000E-01
      2.80000000000000E+00   2.79999999899038E+00   0.00000000000000E+00   0.00000000000000E+00   1.00961082952466E-05
     -2.94179038551255E-19   1.00961082952463E-05   2.81469189423509E-13   0.00000000000000E+00   1.00961082952463E-09
      0.00000000000000E+00   0.00000000000000E+00  -1.00961082952029E-05  -4.34065861711067E-17  -1.00961082952463E-05
     -2.83078512020101E-13
      2.90000000000000E-01
      2.90000000000000E+00   2.89999999897267E+00   0.00000000000000E+00   0.00000000000000E+00   1.02733571535769E-05
     -2.76440700842198E-19   1.02733571535767E-05   2.86232888593460E-13   0.00000000000000E+00   1.02733571535767E-09
      0.00000000000000E+00   0.00000000000000E+00  -1.02733571535501E-05  -2.64098353163026E-17  -1.02733571535766E-05
     -2.87842201420963E-13
      3.00000000000000E-01
      3.00000000000000E+00   2.99999999895339E+00   0.00000000000000E+00   0.00000000000000E+00   1.04663612404488E-05
     -2.64305876257088E-19   1.04663612404486E-05   2.90927963951481E-13   0.00000000000000E+00   1.04663612404486E-09
      0.00000000000000E+00   0.00000000000000E+00  -1.04663612404043E-05  -4.42169054263053E-17  -1.04663612404485E-05
     -2.92537265932859E-13
      3.10000000000000E-01
      3.10000000000000E+00   3.09999999893235E+00   0.00000000000000E+00   0.00000000000000E+00   1.06765714112376E-05
     -2.47740517586699E-19   1.06765714112374E-05   2.95556605503262E-13   0.00000000000000E+00   1.06765714112373E-09
      0.00000000000000E+00   0.00000000000000E+00  -1.06765714112029E-05  -3.43459419495599E-17  -1.06765714112372E-05
     -2.97165895427482E-13
      3.20000000000000E-01
      3.20000000000000E+00   3.19999999890946E+00   0.00000000000000E+00   0.00000000000000E+00   1.09055671691813E-05
     -2.47466174422959E-19   1.09055671691811E-05   3.00120787843111E-13   0.00000000000000E+00   1.09055671691811E-09
      0.00000000000000E+00   0.00000000000000E+00  -1.09055671691341E-05  -4.71700249371420E-17  -1.09055671691812E-05
     -3.01730064345535E-13
      3.30000000000000E-01
      3.30000000000000E+00   3.29999999888448E+00   0.00000000000000E+00   0.00000000000000E+00   1.11550937231495E-05
     -2.55098098812668E-19   1.11550937231493E-05   3.04622292564692E-13   0.00000000000000E+00   1.11550937231492E-09
      0.00000000000000E+00   0.00000000000000E+00  -1.11550937231183E-05  -3.08554898443295E-17  -1.11550937231491E-05
     -3.06231554102878E-13
      3.40000000000000E-01
      3.40000000000000E+00   3.39999999885729E+00   0.00000000000000E+00   0.00000000000000E+00   1.14270490189092E-05
     -2.62177016510114E-19   1.14270490189090E-05   3.09062734264816E-13   0.00000000000000E+00   1.14270490189089E-09
      0.00000000000000E+00   0.00000000000000E+00  -1.14270490188636E-05  -4.52229112428431E-17  -1.14270490189089E-05
     -3.10671979092098E-13
      3.50000000000000E-01
      3.50000000000000E+00   3.49999999882766E+00   0.00000000000000E+00   0.00000000000000E+00   1.17235549742669E-05
     -2.85798610962838E-19   1.17235549742666E-05   3.13443585196661E-13   0.00000000000000E+00   1.17235549742666E-09
      0.00000000000000E+00   0.00000000000000E+00  -1.17235549742223E-05  -4.42703938026481E-17  -1.17235549742666E-05
     -3.15052811327801E-13
      3.60000000000000E-01
      3.60000000000000E+00   3.59999999879529E+00   0.00000000000000E+00   0.00000000000000E+00   1.20469312179668E-05
     -3.17256267041281E-19   1.20469312179665E-05   3.17766197553034E-13   0.00000000000000E+00   1.20469312179665E-09
      0.00000000000000E+00   0.00000000000000E+00  -1.20469312178601E-05  -1.06307491773875E-16  -1.20469312179664E-05
     -3.19375402726727E-13
      3.70000000000000E-01
      3.70000000000000E+00   3.69999999876002E+00   0.00000000000000E+00   0.00000000000000E+00   1.23996997870322E-05
     -3.84471422248753E-19   1.23996997870318E-05   3.22031808591001E-13   0.00000000000000E+00   1.23996997870318E-09
      0.00000000000000E+00   0.00000000000000E+00  -1.23996997869030E-05  -1.28810921652325E-16  -1.23996997870318E-05
     -3.23640990226751E-13
      3.80000000000000E-01
      3.80000000000000E+00   3.79999999872154E+00   0.00000000000000E+00   0.00000000000000E+00   1.27846364557924E-05
     -4.64131388214537E-19   1.27846364557919E-05   3.26241501695968E-13   0.00000000000000E+00   1.27846364557920E-09
      0.00000000000000E+00   0.00000000000000E+00  -1.27846364556731E-05  -1.18740932655629E-16  -1.27846364557918E-05
     -3.27850656841159E-13
      3.90000000000000E-01
      3.90000000000000E+00   3.89999999867951E+00   0.00000000000000E+00   0.00000000000000E+00   1.32047178778246E-05
     -6.66743535457218E-19   1.32047178778239E-05   3.30396068728242E-13   0.00000000000000E+00   1.32047178778239E-09
      0.00000000000000E+00   0.00000000000000E+00  -1.32047178776586E-05  -1.65197345457355E-16  -1.32047178778238E-05
     -3.32005194000908E-13
      4.00000000000000E-01
      4.00000000000000E+00   3.99999999863369E+00   0.00000000000000E+00   0.00000000000000E+00   1.36631301434683E-05
     -1.61549780205351E-18   1.36631301434667E-05   3.34495643672936E-13   0.00000000000000E+00   1.36631301434668E-09
      0.00000000000000E+00   0.00000000000000E+00  -1.36631301436444E-05   1.77632004268381E-16  -1.36631301434668E-05
     -3.36104735194768E-13
      4.10000000000000E-01
      4.10000000000000E+00   4.09999999858370E+00   0.00000000000000E+00   0.00000000000000E+00   1.41631767936432E-05
     -7.13398290679178E-18   1.41631767936361E-05   3.38538841462786E-13   0.00000000000000E+00   1.41631767936360E-09
      0.00000000000000E+00   0.00000000000000E+00  -1.41631767936385E-05   2.65693683957403E-18  -1.41631767936359E-05
     -3.40147894787157E-13
      4.20000000000000E-01
      4.20000000000000E+00   4.19999999852923E+00   0.00000000000000E+00   0.00000000000000E+00   1.47079478687055E-05
     -3.65856115294157E-17   1.47079478686689E-05   3.42520912838689E-13   0.00000000000000E+00   1.47079478686689E-09
      0.00000000000000E+00   0.00000000000000E+00  -1.47079478684459E-05  -2.22812215091165E-16  -1.47079478686687E-05
     -3.44129922890089E-13
      4.30000000000000E-01
      4.30000000000000E+00   4.29999999847004E+00   0.00000000000000E+00   0.00000000000000E+00   1.52997424553951E-05
      1.80591247942172E-21   1.52997424553951E-05   3.46430354618338E-13   0.00000000000000E+00   1.52997424553951E-09
      0.00000000000000E+00   0.00000000000000E+00  -1.52997424553958E-05   7.86217104158564E-19  -1.52997424553950E-05
     -3.48039315663989E-13
      4.40000000000000E-01
      4.40000000000000E+00   4.39999999840610E+00   0.00000000000000E+00   0.00000000000000E+00   1.59388220613226E-05
      8.58672500681980E-22   1.59388220613226E-05   3.50243391607633E-13   0.00000000000000E+00   1.59388220613226E-09
      0.00000000000000E+00   0.00000000000000E+00  -1.59388220613236E-05   9.86470410460195E-19  -1.59388220613226E-05
     -3.51852297324497E-13
      4.50000000000000E-01
      4.50000000000000E+00   4.49999999833790E+00   0.00000000000000E+00   0.00000000000000E+00   1.66207881290197E-05
     -2.57621191846119E-19   1.66207881290194E-05   3.53913349837911E-13   0.00000000000000E+00   1.66207881290195E-09
      0.00000000000000E+00   0.00000000000000E+00  -1.66207881290915E-05   7.19876418271890E-17  -1.66207881290195E-05
     -3.55522193617154E-13
      4.60000000000000E-01
      4.60000000000000E+00   4.59999999826653E+00   0.00000000000000E+00   0.00000000000000E+00   1.73344703539373E-05
     -2.15627030134150E-18   1.73344703539352E-05   3.57367829739139E-13   0.00000000000000E+00   1.73344703539352E-09
      0.00000000000000E+00   0.00000000000000E+00  -1.73344703536962E-05  -2.39293686496780E-16  -1.73344703539355E-05
     -3.58976605292131E-13
      4.70000000000000E-01
      4.70000000000000E+00   4.69999999819133E+00   0.00000000000000E+00   0.00000000000000E+00   1.80865688408493E-05
      6.51835036681226E-21   1.80865688408493E-05   3.60637843671347E-13   0.00000000000000E+00   1.80865688408493E-09
      0.00000000000000E+00   0.00000000000000E+00  -1.80865688408244E-05  -2.49287535127718E-17  -1.80865688408493E-05
     -3.62246543669300E-13
      4.80000000000000E-01
      4.80000000000000E+00   4.79999999810936E+00   0.00000000000000E+00   0.00000000000000E+00   1.89066081181776E-05
      2.10680968521102E-18   1.89066081181798E-05   3.63849120587184E-13   0.00000000000000E+00   1.89066081181798E-09
      0.00000000000000E+00   0.00000000000000E+00  -1.89066081182644E-05   8.44548501038192E-17  -1.89066081181800E-05
     -3.65457734226080E-13
      4.90000000000000E-01
      4.90000000000000E+00   4.89999999801884E+00   0.00000000000000E+00   0.00000000000000E+00   1.98117350302172E-05
     -6.46067349695513E-20   1.98117350302172E-05   3.67039756969404E-13   0.00000000000000E+00   1.98117350302172E-09
      0.00000000000000E+00   0.00000000000000E+00  -1.98117350301930E-05  -2.40105941478792E-17  -1.98117350302170E-05
     -3.68648270532280E-13
      5.00000000000000E-01
      5.00000000000000E+00   4.99999999791850E+00   0.00000000000000E+00   0.00000000000000E+00   2.08148863718172E-05
     -2.55139142278110E-20   2.08148863718172E-05   3.70216302868693E-13   0.00000000000000E+00   2.08148863718173E-09
      0.00000000000000E+00   0.00000000000000E+00  -2.08148863718332E-05   1.60566740001714E-17  -2.08148863718171E-05
     -3.71824699689285E-13
      5.10000000000000E-01
      5.10000000000000E+00   5.09999999780702E+00   0.00000000000000E+00   0.00000000000000E+00   2.19300716980804E-05
      2.42768421455467E-16   2.19300716983232E-05   3.73381062991446E-13   0.00000000000000E+00   2.19300716983229E-09
      0.00000000000000E+00   0.00000000000000E+00  -2.19300717110584E-05   1.27352897184761E-14  -2.19300716983232E-05
     -3.74989322832027E-13
      5.20000000000000E-01
      5.20000000000000E+00   5.19999999768265E+00   0.00000000000000E+00   0.00000000000000E+00   2.31733753322395E-05
      1.35876364590288E-16   2.31733753323754E-05   3.76535359184334E-13   0.00000000000000E+00   2.31733753323752E-09
      0.00000000000000E+00   0.00000000000000E+00  -2.31733753435215E-05   1.11460404519496E-14  -2.31733753323755E-05
     -3.78143457357913E-13
      5.30000000000000E-01
      5.30000000000000E+00   5.29999999754369E+00   0.00000000000000E+00   0.00000000000000E+00   2.45634198744565E-05
      7.58054337143261E-17   2.45634198745323E-05   3.79680042100989E-13   0.00000000000000E+00   2.45634198745324E-09
      0.00000000000000E+00   0.00000000000000E+00  -2.45634198852494E-05   1.07171580195542E-14  -2.45634198745322E-05
     -3.81287948334229E-13
      5.40000000000000E-01
      5.40000000000000E+00   5.39999999738785E+00   0.00000000000000E+00   0.00000000000000E+00   2.61218142131852E-05
      3.29749962727116E-17   2.61218142132182E-05   3.82815638363152E-13   0.00000000000000E+00   2.61218142132182E-09
      0.00000000000000E+00   0.00000000000000E+00  -2.61218142235143E-05   1.02958112666142E-14  -2.61218142132185E-05
     -3.84423315330480E-13
      5.50000000000000E-01
      5.50000000000000E+00   5.49999999721264E+00   0.00000000000000E+00   0.00000000000000E+00   2.78737487056720E-05
      8.02576884335540E-19   2.78737487056728E-05   3.85942416356072E-13   0.00000000000000E+00   2.78737487056727E-09
      0.00000000000000E+00   0.00000000000000E+00  -2.78737487151566E-05   9.48358767894020E-15  -2.78737487056730E-05
     -3.87549817770798E-13
      5.60000000000000E-01
      5.60000000000000E+00   5.59999999701510E+00   0.00000000000000E+00   0.00000000000000E+00   2.98487183138533E-05
     -3.52150449277486E-17   2.98487183138181E-05   3.89060422705921E-13   0.00000000000000E+00   2.98487183138181E-09
      0.00000000000000E+00   0.00000000000000E+00  -2.98487183218210E-05   8.00251286870269E-15  -2.98487183138185E-05
     -3.90667490819057E-13
      5.70000000000000E-01
      5.70000000000000E+00   5.69999999679187E+00   0.00000000000000E+00   0.00000000000000E+00   3.20813412016488E-05
     -8.34671146164804E-17   3.20813412015653E-05   3.92169503629554E-13   0.00000000000000E+00   3.20813412015654E-09
      0.00000000000000E+00   0.00000000000000E+00  -3.20813412064253E-05   4.85999097663883E-15  -3.20813412015654E-05
     -3.93776165943017E-13
      5.80000000000000E-01
      5.80000000000000E+00   5.79999999653878E+00   0.00000000000000E+00   0.00000000000000E+00   3.46123502518385E-05
     -1.43938536827307E-16   3.46123502516946E-05   3.95269314907074E-13   0.00000000000000E+00   3.46123502516949E-09
      0.00000000000000E+00   0.00000000000000E+00  -3.46123502508764E-05  -8.18622325779546E-16  -3.46123502516950E-05
     -3.96875479828674E-13
      5.90000000000000E-01
      5.90000000000000E+00   5.89999999625105E+00   0.00000000000000E+00   0.00000000000000E+00   3.74898453065931E-05
     -2.22895039397249E-16   3.74898453063702E-05   3.98359321522892E-13   0.00000000000000E+00   3.74898453063710E-09
      0.00000000000000E+00   0.00000000000000E+00  -3.74898452951303E-05  -1.12409097368391E-14  -3.74898453063712E-05
     -3.99964872575837E-13
      6.00000000000000E-01
      6.00000000000000E+00   5.99999999592293E+00   0.00000000000000E+00   0.00000000000000E+00   4.07708310156884E-05
     -3.36417784754336E-16   4.07708310153520E-05   4.01438788165474E-13   0.00000000000000E+00   4.07708310153537E-09
      0.00000000000000E+00   0.00000000000000E+00  -4.07708309862732E-05  -2.90816045729423E-14  -4.07708310153548E-05
     -4.03043576218101E-13
      6.10000000000000E-01
      6.10000000000000E+00   6.09999999554774E+00   0.00000000000000E+00   0.00000000000000E+00   4.45230624112317E-05
     -5.01821181293811E-16   4.45230624107299E-05   4.04506761405616E-13   0.00000000000000E+00   4.45230624107334E-09
      0.00000000000000E+00   0.00000000000000E+00  -4.45230623518603E-05  -5.88749886360388E-14  -4.45230624107353E-05
     -4.06110594183424E-13
      6.20000000000000E-01
      6.20000000000000E+00   6.19999999511728E+00   0.00000000000000E+00   0.00000000000000E+00   4.88272875170515E-05
     -7.35943721147663E-16   4.88272875163155E-05   4.07562042979982E-13   0.00000000000000E+00   4.88272875163217E-09
      0.00000000000000E+00   0.00000000000000E+00  -4.88272874077770E-05  -1.08548958945387E-13  -4.88272875163259E-05
     -4.09164670818976E-13
      6.30000000000000E-01
      6.30000000000000E+00   6.29999999462200E+00   0.00000000000000E+00   0.00000000000000E+00   5.37800308453442E-05
     -1.06412109053530E-15   5.37800308442801E-05   4.10603152525725E-13   0.00000000000000E+00   5.37800308442912E-09
      0.00000000000000E+00   0.00000000000000E+00  -5.37800306522557E-05  -1.92047490277440E-13  -5.37800308443031E-05
     -4.12204248876636E-13
      6.40000000000000E-01
      6.40000000000000E+00   6.39999999405030E+00   0.00000000000000E+00   0.00000000000000E+00   5.94970719546498E-05
      8.99540991349659E-19   5.94970719546507E-05   4.13628277875228E-13   0.00000000000000E+00   5.94970719546507E-09
      0.00000000000000E+00   0.00000000000000E+00  -5.94970719547670E-05   1.16994023943237E-16  -5.94970719546500E-05
     -4.15227412410955E-13
      6.50000000000000E-01
      6.50000000000000E+00   6.49999999338821E+00   0.00000000000000E+00   0.00000000000000E+00   6.61177663547406E-05
      1.58014533712292E-18   6.61177663547421E-05   4.16635211170941E-13   0.00000000000000E+00   6.61177663547419E-09
      0.00000000000000E+00   0.00000000000000E+00  -6.61177663552846E-05   5.43192544923408E-16  -6.61177663547414E-05
     -4.18231812394056E-13
      6.60000000000000E-01
      6.60000000000000E+00   6.59999999261897E+00   0.00000000000000E+00   0.00000000000000E+00   7.38103832141122E-05
      2.75993543087126E-18   7.38103832141150E-05   4.19621268735684E-13   0.00000000000000E+00   7.38103832141149E-09
      0.00000000000000E+00   0.00000000000000E+00  -7.38103832150310E-05   9.15972545579927E-16  -7.38103832141150E-05
     -4.21214571543000E-13
      6.70000000000000E-01
      6.70000000000000E+00   6.69999999172210E+00   0.00000000000000E+00   0.00000000000000E+00   8.27786826578319E-05
      4.80147628520968E-18   8.27786826578367E-05   4.22583192115121E-13   0.00000000000000E+00   8.27786826578368E-09
      0.00000000000000E+00   0.00000000000000E+00  -8.27786826594339E-05   1.59718286902727E-15  -8.27786826578367E-05
     -4.24172163600048E-13
      6.80000000000000E-01
      6.80000000000000E+00   6.79999999067297E+00   0.00000000000000E+00   0.00000000000000E+00   9.32700294414199E-05
      8.38919792892707E-18   9.32700294414283E-05   4.25517026931305E-13   0.00000000000000E+00   9.32700294414287E-09
      0.00000000000000E+00   0.00000000000000E+00  -9.32700294449331E-05   3.50274089952235E-15  -9.32700294414304E-05
     -4.27100260266842E-13
      6.90000000000000E-01
      6.90000000000000E+00   6.89999998944141E+00   0.00000000000000E+00   0.00000000000000E+00   1.05585378844655E-04
      1.47128596975092E-17   1.05585378844670E-04   4.28417976313258E-13   0.00000000000000E+00   1.05585378844670E-08
      0.00000000000000E+00   0.00000000000000E+00  -1.05585378851468E-04   6.79549696481702E-15  -1.05585378844672E-04
     -4.29993537029436E-13
      7.00000000000000E-01
      7.00000000000000E+00   6.99999998799086E+00   0.00000000000000E+00   0.00000000000000E+00   1.20091475811597E-04
      2.59050282109141E-17   1.20091475811623E-04   4.31280226800147E-13   0.00000000000000E+00   1.20091475811623E-08
      0.00000000000000E+00   0.00000000000000E+00  -1.20091475825805E-04   1.41817425357007E-14  -1.20091475811624E-04
     -4.32845426580330E-13
      7.10000000000000E-01
      7.10000000000000E+00   7.09999998627647E+00   0.00000000000000E+00   0.00000000000000E+00   1.37235541870535E-04
      4.57646002231021E-17   1.37235541870581E-04   4.34096747601018E-13   0.00000000000000E+00   1.37235541870580E-08
      0.00000000000000E+00   0.00000000000000E+00  -1.37235541899637E-04   2.90565638382294E-14  -1.37235541870580E-04
     -4.35647805142750E-13
      7.20000000000000E-01