DF-ISE text

Info {
  version   = 1.0
  type      = xyplot
  datasets  = [
    "time"
    "ntype OuterVoltage" "ntype InnerVoltage" "ntype QuasiFermiPotential" "ntype DisplacementCurrent" "ntype eCurrent"
    "ntype hCurrent" "ntype TotalCurrent" "ntype Charge" "ptype OuterVoltage" "ptype InnerVoltage"
    "ptype QuasiFermiPotential" "ptype DisplacementCurrent" "ptype eCurrent" "ptype hCurrent" "ptype TotalCurrent"
    "ptype Charge" ]
  functions = [
    Time
    OuterVoltage InnerVoltage QuasiFermiPotential DisplacementCurrent eCurrent
    hCurrent TotalCurrent Charge OuterVoltage InnerVoltage
    QuasiFermiPotential DisplacementCurrent eCurrent hCurrent TotalCurrent
    Charge ]
}

Data {
      1.00000000000000E-02
      1.00000000000000E-01   9.99999992568277E-02   0.00000000000000E+00   0.00000000000000E+00   7.43172383165381E-06
      4.77554221550669E-20   7.43172383165386E-06   4.58026177727972E-14   0.00000000000000E+00   7.43172383165377E-10
      0.00000000000000E+00   0.00000000000000E+00  -7.43172383168051E-06   2.67314316193248E-17  -7.43172383165377E-06
     -4.78858475297298E-14
      2.00000000000000E-02
      2.00000000000000E-01   1.99999999255025E-01   0.00000000000000E+00   0.00000000000000E+00   7.44975307528403E-06
      4.96717739592619E-20   7.44975307528408E-06   5.18130400847532E-14   0.00000000000000E+00   7.44975307528410E-10
      0.00000000000000E+00   0.00000000000000E+00  -7.44975307526652E-06  -1.76241372841633E-17  -7.44975307528414E-06
     -5.38962690492187E-14
      3.00000000000000E-02
      3.00000000000000E-01   2.99999999253672E-01   0.00000000000000E+00   0.00000000000000E+00   7.46328653794335E-06
      2.17007062655057E-19   7.46328653794356E-06   5.77334121134658E-14   0.00000000000000E+00   7.46328653794333E-10
      0.00000000000000E+00   0.00000000000000E+00  -7.46328653794425E-06   7.79167202945523E-19  -7.46328653794347E-06
     -5.98166404340093E-14
      4.00000000000000E-02
      4.00000000000000E-01   3.99999999252604E-01   0.00000000000000E+00   0.00000000000000E+00   7.47396502936040E-06
     -7.39287320579299E-20   7.47396502936032E-06   6.35739523434785E-14   0.00000000000000E+00   7.47396502936039E-10
      0.00000000000000E+00   0.00000000000000E+00  -7.47396502937991E-06   1.95588806774624E-17  -7.47396502936035E-06
     -6.56571801166498E-14
      5.00000000000000E-02
      5.00000000000000E-01   4.99999999251723E-01   0.00000000000000E+00   0.00000000000000E+00   7.48274154324848E-06
     -2.50338946981058E-19   7.48274154324823E-06   6.93440002993746E-14   0.00000000000000E+00   7.48274154324850E-10
      0.00000000000000E+00   0.00000000000000E+00  -7.48274154323336E-06  -1.48763343434686E-17  -7.48274154324823E-06
     -7.14272275915434E-14
      6.00000000000000E-02
      6.00000000000000E-01   5.99999999250975E-01   0.00000000000000E+00   0.00000000000000E+00   7.49021298385626E-06
     -3.09238750094662E-19   7.49021298385595E-06   7.50512909501134E-14   0.00000000000000E+00   7.49021298385623E-10
      0.00000000000000E+00   0.00000000000000E+00  -7.49021298383215E-06  -2.37055057655296E-17  -7.49021298385585E-06
     -7.71345178088296E-14
      7.00000000000000E-02
      7.00000000000000E-01   6.99999999250327E-01   0.00000000000000E+00   0.00000000000000E+00   7.49677564671270E-06
      3.37428590260133E-20   7.49677564671273E-06   8.07021030352595E-14   0.00000000000000E+00   7.49677564671272E-10
      0.00000000000000E+00   0.00000000000000E+00  -7.49677564671683E-06   4.02160724049282E-18  -7.49677564671280E-06
     -8.27853294957225E-14
      8.00000000000000E-02
      8.00000000000000E-01   7.99999999249725E-01   0.00000000000000E+00   0.00000000000000E+00   7.50271201250434E-06
      3.80946004585576E-19   7.50271201250472E-06   8.63015622932231E-14   0.00000000000000E+00   7.50271201250431E-10
      0.00000000000000E+00   0.00000000000000E+00  -7.50271201250775E-06   3.06425374118447E-18  -7.50271201250469E-06
     -8.83847883819811E-14
      9.00000000000000E-02
      9.00000000000000E-01   8.99999999249175E-01   0.00000000000000E+00   0.00000000000000E+00   7.50823306805704E-06
     -9.40713527688963E-20   7.50823306805694E-06   9.18539099941029E-14   0.00000000000000E+00   7.50823306805704E-10
      0.00000000000000E+00   0.00000000000000E+00  -7.50823306801810E-06  -3.88823315742944E-17  -7.50823306805698E-06
     -9.39371357314104E-14
      1.00000000000000E-01
      1.00000000000000E+00   9.99999999248642E-01   0.00000000000000E+00   0.00000000000000E+00   7.51352100919090E-06
      1.92942090766447E-19   7.51352100919110E-06   9.73627070604602E-14   0.00000000000000E+00   7.51352100919088E-10
      0.00000000000000E+00   0.00000000000000E+00  -7.51352100921148E-06   2.04255093427470E-17  -7.51352100919106E-06
     -9.94459324612589E-14
      1.10000000000000E-01
      1.10000000000000E+00   1.09999999924812E+00   0.00000000000000E+00   0.00000000000000E+00   7.51874028426243E-06
     -9.33730738107945E-20   7.51874028426233E-06   1.02830984539696E-13   0.00000000000000E+00   7.51874028426242E-10
      0.00000000000000E+00   0.00000000000000E+00  -7.51874028426901E-06   6.71943890210958E-18  -7.51874028426230E-06
     -1.04914209614222E-13
      1.20000000000000E-01
      1.20000000000000E+00   1.19999999924760E+00   0.00000000000000E+00   0.00000000000000E+00   7.52405017496008E-06
     -2.15362353786612E-19   7.52405017495987E-06   1.08261353240278E-13   0.00000000000000E+00   7.52405017496008E-10
      0.00000000000000E+00   0.00000000000000E+00  -7.52405017496088E-06   1.04923007172073E-18  -7.52405017495983E-06
     -1.10344577994280E-13
      1.30000000000000E-01
      1.30000000000000E+00   1.29999999924704E+00   0.00000000000000E+00   0.00000000000000E+00   7.52963915577024E-06
     -1.07474204417906E-19   7.52963915577013E-06   1.13656083703809E-13   0.00000000000000E+00   7.52963915577023E-10
      0.00000000000000E+00   0.00000000000000E+00  -7.52963915571876E-06  -5.14161792053965E-17  -7.52963915577017E-06
     -1.15739308137560E-13
      1.40000000000000E-01
      1.40000000000000E+00   1.39999999924643E+00   0.00000000000000E+00   0.00000000000000E+00   7.53571356570952E-06
      1.06145422224241E-19   7.53571356570963E-06   1.19017168283224E-13   0.00000000000000E+00   7.53571356570953E-10
      0.00000000000000E+00   0.00000000000000E+00  -7.53571356571561E-06   5.92217840430383E-18  -7.53571356570969E-06
     -1.21100392390933E-13
      1.50000000000000E-01
      1.50000000000000E+00   1.49999999924576E+00   0.00000000000000E+00   0.00000000000000E+00   7.54249092319900E-06
     -2.25673444387569E-19   7.54249092319877E-06   1.24346371319181E-13   0.00000000000000E+00   7.54249092319901E-10
      0.00000000000000E+00   0.00000000000000E+00  -7.54249092324174E-06   4.29839234246111E-17  -7.54249092319876E-06
     -1.26429595088548E-13
      1.60000000000000E-01
      1.60000000000000E+00   1.59999999924497E+00   0.00000000000000E+00   0.00000000000000E+00   7.55023543302464E-06
     -4.17290533279536E-20   7.55023543302460E-06   1.29645270141942E-13   0.00000000000000E+00   7.55023543302464E-10
      0.00000000000000E+00   0.00000000000000E+00  -7.55023543303223E-06   7.65514340758264E-18  -7.55023543302458E-06
     -1.31728493552539E-13
      1.70000000000000E-01
      1.70000000000000E+00   1.69999999924407E+00   0.00000000000000E+00   0.00000000000000E+00   7.55926854320715E-06
     -5.48254291001475E-21   7.55926854320714E-06   1.34915289316093E-13   0.00000000000000E+00   7.55926854320718E-10
      0.00000000000000E+00   0.00000000000000E+00  -7.55926854317141E-06  -3.57400659309035E-17  -7.55926854320715E-06
     -1.36998512337252E-13
      1.80000000000000E-01
      1.80000000000000E+00   1.79999999924300E+00   0.00000000000000E+00   0.00000000000000E+00   7.56993921019513E-06
     -1.48260878177501E-19   7.56993921019498E-06   1.40157728253466E-13   0.00000000000000E+00   7.56993921019515E-10
      0.00000000000000E+00   0.00000000000000E+00  -7.56993921017962E-06  -1.54001458914137E-17  -7.56993921019502E-06
     -1.42240950843140E-13
      1.90000000000000E-01
      1.90000000000000E+00   1.89999999924174E+00   0.00000000000000E+00   0.00000000000000E+00   7.58261083279136E-06
      4.38049886063319E-20   7.58261083279140E-06   1.45373781733844E-13   0.00000000000000E+00   7.58261083279137E-10
      0.00000000000000E+00   0.00000000000000E+00  -7.58261083278925E-06  -2.17370897559029E-18  -7.58261083279142E-06
     -1.47457003837825E-13
      2.00000000000000E-01
      2.00000000000000E+00   1.99999999924024E+00   0.00000000000000E+00   0.00000000000000E+00   7.59769306614757E-06
     -8.97555783731730E-21   7.59769306614757E-06   1.50564555357408E-13   0.00000000000000E+00   7.59769306614755E-10
      0.00000000000000E+00   0.00000000000000E+00  -7.59769306621671E-06   6.91480835285858E-17  -7.59769306614756E-06
     -1.52647776907395E-13
      2.10000000000000E-01
      2.10000000000000E+00   2.09999999923845E+00   0.00000000000000E+00   0.00000000000000E+00   7.61567146182119E-06
      1.92780107869672E-16   7.61567146201397E-06   1.55731080114655E-13   0.00000000000000E+00   7.61567146201187E-10
      0.00000000000000E+00   0.00000000000000E+00  -7.61567145893272E-06  -3.08127045640844E-15  -7.61567146201399E-06
     -1.57814301025118E-13
      2.20000000000000E-01
      2.20000000000000E+00   2.19999999923631E+00   0.00000000000000E+00   0.00000000000000E+00   7.63709934225750E-06
      1.86660665424032E-16   7.63709934244416E-06   1.60874328148272E-13   0.00000000000000E+00   7.63709934244307E-10
      0.00000000000000E+00   0.00000000000000E+00  -7.63709934105192E-06  -1.39220832038485E-15  -7.63709934244413E-06
     -1.62957548313528E-13
      2.30000000000000E-01
      2.30000000000000E+00   2.29999999923375E+00   0.00000000000000E+00   0.00000000000000E+00   7.66257568452913E-06
      1.82179205308892E-16   7.66257568471131E-06   1.65995227621155E-13   0.00000000000000E+00   7.66257568471030E-10
      0.00000000000000E+00   0.00000000000000E+00  -7.66257568595790E-06   1.24657927795719E-15  -7.66257568471133E-06
     -1.68078446912939E-13
      2.40000000000000E-01
      2.40000000000000E+00   2.39999999923074E+00   0.00000000000000E+00   0.00000000000000E+00   7.69273941228389E-06
      1.78186088446257E-16   7.69273941246208E-06   1.71094672778777E-13   0.00000000000000E+00   7.69273941246111E-10
      0.00000000000000E+00   0.00000000000000E+00  -7.69273941386527E-06   1.40315257279769E-15  -7.69273941246211E-06
     -1.73177891043879E-13
      2.50000000000000E-01
      2.50000000000000E+00   2.49999999922718E+00   0.00000000000000E+00   0.00000000000000E+00   7.72830524659011E-06
      1.74769568277671E-16   7.72830524676488E-06   1.76173525691192E-13   0.00000000000000E+00   7.72830524676386E-10
      0.00000000000000E+00   0.00000000000000E+00  -7.72830524779023E-06   1.02530643874266E-15  -7.72830524676492E-06
     -1.78256742747518E-13
      2.60000000000000E-01
      2.60000000000000E+00   2.59999999922298E+00   0.00000000000000E+00   0.00000000000000E+00   7.77012216376135E-06
      1.71782556363949E-16   7.77012216393313E-06   1.81232609242756E-13   0.00000000000000E+00   7.77012216393232E-10
      0.00000000000000E+00   0.00000000000000E+00  -7.77012216458700E-06   6.53880180300364E-16  -7.77012216393312E-06
     -1.83315824873049E-13
      2.70000000000000E-01
      2.70000000000000E+00   2.69999999921807E+00   0.00000000000000E+00   0.00000000000000E+00   7.81921248696386E-06
      1.69323097443346E-16   7.81921248713318E-06   1.86272694089913E-13   0.00000000000000E+00   7.81921248713299E-10
      0.00000000000000E+00   0.00000000000000E+00  -7.81921248590699E-06  -1.22626436338763E-15  -7.81921248713326E-06
     -1.88355908033562E-13
      2.80000000000000E-01
      2.80000000000000E+00   2.79999999921233E+00   0.00000000000000E+00   0.00000000000000E+00   7.87680069121159E-06
      1.68853123571831E-16   7.87680069138045E-06   1.91294482903358E-13   0.00000000000000E+00   7.87680069138025E-10
      0.00000000000000E+00   0.00000000000000E+00  -7.87680068717134E-06  -4.20905768889474E-15  -7.87680069138040E-06
     -1.93377694846488E-13
      2.90000000000000E-01
      2.90000000000000E+00   2.89999999920556E+00   0.00000000000000E+00   0.00000000000000E+00   7.94435935371974E-06
      1.69737068046313E-16   7.94435935388947E-06   1.96298595263059E-13   0.00000000000000E+00   7.94435935388936E-10
      0.00000000000000E+00   0.00000000000000E+00  -7.94435934735648E-06  -6.53305360832935E-15  -7.94435935388953E-06
     -1.98381804826036E-13
      3.00000000000000E-01
      3.00000000000000E+00   2.99999999919765E+00   0.00000000000000E+00   0.00000000000000E+00   8.02368377349874E-06
      1.72268209919354E-16   8.02368377367101E-06   2.01285556113866E-13   0.00000000000000E+00   8.02368377367079E-10
      0.00000000000000E+00   0.00000000000000E+00  -8.02368376897863E-06  -4.69244108106915E-15  -8.02368377367107E-06
     -2.03368762834665E-13
      3.10000000000000E-01
      3.10000000000000E+00   3.09999999918832E+00   0.00000000000000E+00   0.00000000000000E+00   8.11702064266659E-06
      1.76259281899332E-16   8.11702064284285E-06   2.06255788672653E-13   0.00000000000000E+00   8.11702064284242E-10
      0.00000000000000E+00   0.00000000000000E+00  -8.11702064277735E-06  -6.54953802227770E-17  -8.11702064284284E-06
     -2.08338991983240E-13
      3.20000000000000E-01
      3.20000000000000E+00   3.19999999917726E+00   0.00000000000000E+00   0.00000000000000E+00   8.22729336361259E-06
      1.81699847065021E-16   8.22729336379429E-06   2.11209610678440E-13   0.00000000000000E+00   8.22729336379376E-10
      0.00000000000000E+00   0.00000000000000E+00  -8.22729336450840E-06   7.14129108522493E-16  -8.22729336379427E-06
     -2.13292809868982E-13
      3.30000000000000E-01
      3.30000000000000E+00   3.29999999916417E+00   0.00000000000000E+00   0.00000000000000E+00   8.35845078050054E-06
      1.88617096172231E-16   8.35845078068916E-06   2.16147232250309E-13   0.00000000000000E+00   8.35845078068848E-10
      0.00000000000000E+00   0.00000000000000E+00  -8.35845078081866E-06   1.29556866559110E-16  -8.35845078068910E-06
     -2.18230426413824E-13
      3.40000000000000E-01
      3.40000000000000E+00   3.39999999914840E+00   0.00000000000000E+00   0.00000000000000E+00   8.51600289289480E-06
      1.96338560662119E-16   8.51600289309113E-06   2.21068752162649E-13   0.00000000000000E+00   8.51600289309074E-10
      0.00000000000000E+00   0.00000000000000E+00  -8.51600289287669E-06  -2.14498906320613E-16  -8.51600289309119E-06
     -2.23151940107567E-13
      3.50000000000000E-01
      3.50000000000000E+00   3.49999999912919E+00   0.00000000000000E+00   0.00000000000000E+00   8.70794651312002E-06
      2.05156204846242E-16   8.70794651332518E-06   2.25974145747429E-13   0.00000000000000E+00   8.70794651332472E-10
      0.00000000000000E+00   0.00000000000000E+00  -8.70794651196385E-06  -1.36131964450028E-15  -8.70794651332517E-06
     -2.28057325851673E-13
      3.60000000000000E-01
      3.60000000000000E+00   3.59999999910537E+00   0.00000000000000E+00   0.00000000000000E+00   8.94652624726739E-06
      2.13803200021880E-16   8.94652624748119E-06   2.30863231328769E-13   0.00000000000000E+00   8.94652624748085E-10
      0.00000000000000E+00   0.00000000000000E+00  -8.94652624279415E-06  -4.68691731089037E-15  -8.94652624748107E-06
     -2.32946401277074E-13
      3.70000000000000E-01
      3.70000000000000E+00   3.69999999907482E+00   0.00000000000000E+00   0.00000000000000E+00   9.25187975774467E-06
      2.21170818535332E-16   9.25187975796584E-06   2.35735585163409E-13   0.00000000000000E+00   9.25187975796523E-10
      0.00000000000000E+00   0.00000000000000E+00  -9.25187974905086E-06  -8.91504424209849E-15  -9.25187975796591E-06
     -2.37818741427916E-13
      3.80000000000000E-01
      3.80000000000000E+00   3.79999999903393E+00   0.00000000000000E+00   0.00000000000000E+00   9.66047430714864E-06
      2.24881925476896E-16   9.66047430737352E-06   2.40590320487995E-13   0.00000000000000E+00   9.66047430737268E-10
      0.00000000000000E+00   0.00000000000000E+00  -9.66047429361970E-06  -1.37538196779872E-14  -9.66047430737352E-06
     -2.42673457168639E-13
      3.90000000000000E-01
      3.90000000000000E+00   3.89999999897520E+00   0.00000000000000E+00   0.00000000000000E+00   1.02479431090314E-05
      2.44573400736096E-16   1.02479431092760E-05   2.45425445117305E-13   0.00000000000000E+00   1.02479431092764E-09
      0.00000000000000E+00   0.00000000000000E+00  -1.02479430942811E-05  -1.49949977813250E-14  -1.02479431092761E-05
     -2.47508550876398E-13
      4.00000000000000E-01
      4.00000000000000E+00   3.99999999887928E+00   0.00000000000000E+00   0.00000000000000E+00   1.12074366173452E-05
     -2.21349569307877E-19   1.12074366173450E-05   2.50235547496644E-13   0.00000000000000E+00   1.12074366173452E-09
      0.00000000000000E+00   0.00000000000000E+00  -1.12074366173784E-05   3.34426429349777E-17  -1.12074366173450E-05
     -2.52318595060633E-13
      4.10000000000000E-01
      4.10000000000000E+00   4.09999999867435E+00   0.00000000000000E+00   0.00000000000000E+00   1.32567545527687E-05
      7.74749414766269E-18   1.32567545527764E-05   2.54999341896357E-13   0.00000000000000E+00   1.32567545527765E-09
      0.00000000000000E+00   0.00000000000000E+00  -1.32567545529905E-05   2.14097035386063E-16  -1.32567545527764E-05
     -2.57082230509378E-13
      4.20000000000000E-01
      4.20000000000000E+00   4.19999999773748E+00   0.00000000000000E+00   0.00000000000000E+00   2.26255424016815E-05
     -2.01916568512569E-19   2.26255424016812E-05   2.59523699129374E-13   0.00000000000000E+00   2.26255424016815E-09
      0.00000000000000E+00   0.00000000000000E+00  -2.26255424017036E-05   2.21739608742190E-17  -2.26255424016814E-05
     -2.61605254323690E-13
      4.25000000000000E-01
      4.25000000000000E+00   4.24999999559496E+00   0.00000000000000E+00   0.00000000000000E+00   4.40505562129394E-05
      2.39175394403796E-20   4.40505562129394E-05   2.61257667211165E-13   0.00000000000000E+00   4.40505562129393E-09
      0.00000000000000E+00   0.00000000000000E+00  -4.40505562128836E-05  -5.55577319488926E-17  -4.40505562129392E-05
     -2.63332564595228E-13
      4.33333333333334E-01
      4.33333333333334E+00   4.33333332293488E+00   0.00000000000000E+00   0.00000000000000E+00   1.03984836960876E-04
      6.47017829947840E-20   1.03984836960876E-04   2.63391348892232E-13   0.00000000000000E+00   1.03984836960876E-08
      0.00000000000000E+00   0.00000000000000E+00  -1.03984836960862E-04  -1.42153668649545E-17  -1.03984836960876E-04
     -2.65420494945789E-13
      4.43333333333334E-01
      4.43333333333334E+00   4.43333331488327E+00   0.00000000000000E+00   0.00000000000000E+00   1.84500804898664E-04
      2.10142543059982E-20   1.84500804898664E-04   2.65727717447549E-13   0.00000000000000E+00   1.84500804898663E-08
      0.00000000000000E+00   0.00000000000000E+00  -1.84500804898641E-04  -2.52072053838647E-17  -1.84500804898667E-04
     -2.67618417639762E-13
      4.53333333333334E-01
      4.53333333333334E+00   4.53333330450226E+00   0.00000000000000E+00   0.00000000000000E+00   2.88310999574259E-04
     -7.41028967632569E-19   2.88310999574259E-04   2.67894400450222E-13   0.00000000000000E+00   2.88310999574259E-08
      0.00000000000000E+00   0.00000000000000E+00  -2.88310999574339E-04   7.73518205899045E-17  -2.88310999574261E-04
     -2.69525343133141E-13
      4.58333333333334E-01
      4.58333333333334E+00   4.58333329250887E+00   0.00000000000000E+00   0.00000000000000E+00   4.08244461149397E-04
      1.77071858051941E-15   4.08244461151168E-04   2.68583052905202E-13   0.00000000000000E+00   4.08244461151212E-08
      0.00000000000000E+00   0.00000000000000E+00  -4.08244461150788E-04  -3.86718271056305E-16  -4.08244461151175E-04
     -2.70044355120257E-13
      4.66333333333334E-01
      4.66333333333334E+00   4.66333326733722E+00   0.00000000000000E+00   0.00000000000000E+00   6.59961362016755E-04
     -3.88763704660967E-18   6.59961362016751E-04   2.69340912769382E-13   0.00000000000000E+00   6.59961362016751E-08
      0.00000000000000E+00   0.00000000000000E+00  -6.59961362016886E-04   1.28593008246254E-16  -6.59961362016757E-04
     -2.70535721354978E-13
      4.76333333333334E-01
      4.76333333333334E+00   4.76333323456600E+00   0.00000000000000E+00   0.00000000000000E+00   9.87673105595053E-04
      1.19007040175022E-18   9.87673105595055E-04   2.70210649250722E-13   0.00000000000000E+00   9.87673105595053E-08
      0.00000000000000E+00   0.00000000000000E+00  -9.87673105594797E-04  -2.65289072449059E-16  -9.87673105595062E-04
     -2.71147973001988E-13
      4.86333333333334E-01
      4.86333333333334E+00   4.86333320135921E+00   0.00000000000000E+00   0.00000000000000E+00   1.31974157710324E-03
     -5.09872170266589E-19   1.31974157710323E-03   2.71051476884958E-13   0.00000000000000E+00   1.31974157710324E-07
      0.00000000000000E+00   0.00000000000000E+00  -1.31974157710325E-03   3.69986478176353E-18  -1.31974157710325E-03
     -2.71829542484826E-13
      4.96333333333334E-01
      4.96333333333334E+00   4.96333316786356E+00   0.00000000000000E+00   0.00000000000000E+00   1.65469803537740E-03
      1.55505481864387E-18   1.65469803537740E-03   2.71871551412245E-13   0.00000000000000E+00   1.65469803537740E-07
      0.00000000000000E+00   0.00000000000000E+00  -1.65469803537743E-03   1.06995459720156E-17  -1.65469803537742E-03
     -2.72568499122184E-13
      5.06333333333334E-01
      5.06333333333334E+00   5.06333313412382E+00   0.00000000000000E+00   0.00000000000000E+00   1.99209498265294E-03
      3.93740764891335E-19   1.99209498265294E-03   2.72673570310060E-13   0.00000000000000E+00   1.99209498265294E-07
      0.00000000000000E+00   0.00000000000000E+00  -1.99209498265292E-03  -3.37832963788723E-17  -1.99209498265296E-03
     -2.73324411130561E-13
      5.16333333333334E-01
      5.16333333333334E+00   5.16333310016073E+00   0.00000000000000E+00   0.00000000000000E+00   2.33172619990536E-03
     -6.19367495334685E-20   2.33172619990536E-03   2.73458948947786E-13   0.00000000000000E+00   2.33172619990536E-07
      0.00000000000000E+00   0.00000000000000E+00  -2.33172619990530E-03  -1.36202837425940E-16  -2.33172619990544E-03
     -2.74077717834515E-13
      5.26333333333334E-01
      5.26333333333334E+00   5.26333306598667E+00   0.00000000000000E+00   0.00000000000000E+00   2.67346632415948E-03
      6.70244111022891E-19   2.67346632415948E-03   2.74228630143586E-13   0.00000000000000E+00   2.67346632415948E-07
      0.00000000000000E+00   0.00000000000000E+00  -2.67346632415944E-03  -7.72443835202138E-17  -2.67346632415952E-03
     -2.74822767952994E-13
      5.36333333333334E-01
      5.36333333333334E+00   5.36333303161108E+00   0.00000000000000E+00   0.00000000000000E+00   3.01722236166683E-03
      1.01089623345697E-18   3.01722236166683E-03   2.74983348371680E-13   0.00000000000000E+00   3.01722236166684E-07
      0.00000000000000E+00   0.00000000000000E+00  -3.01722236166682E-03  -4.94482765542494E-17  -3.01722236166687E-03
     -2.75557607148631E-13
      5.46333333333334E-01
      5.46333333333334E+00   5.46333299704155E+00   0.00000000000000E+00   0.00000000000000E+00   3.36291777337229E-03
      6.39275736256157E-19   3.36291777337229E-03   2.75723723664185E-13   0.00000000000000E+00   3.36291777337228E-07
      0.00000000000000E+00   0.00000000000000E+00  -3.36291777337225E-03  -6.43918217082437E-17  -3.36291777337231E-03
     -2.76281424054050E-13
      5.56333333333334E-01
      5.56333333333334E+00   5.56333296228471E+00   0.00000000000000E+00   0.00000000000000E+00   3.71048602924945E-03
      2.91766330838018E-18   3.71048602924945E-03   2.76450301695319E-13   0.00000000000000E+00   3.71048602924945E-07
      0.00000000000000E+00   0.00000000000000E+00  -3.71048602924947E-03  -1.58334154311486E-17  -3.71048602924948E-03
     -2.76993890736179E-13
      5.66333333333334E-01
      5.66333333333334E+00   5.66333292734656E+00   0.00000000000000E+00   0.00000000000000E+00   4.05986743899627E-03
     -3.45076175972182E-19   4.05986743899627E-03   2.77163574496408E-13   0.00000000000000E+00   4.05986743899627E-07
      0.00000000000000E+00   0.00000000000000E+00  -4.05986743899628E-03  -1.58723310792919E-17  -4.05986743899630E-03
     -2.77694923419560E-13
      5.76333333333334E-01
      5.76333333333334E+00   5.76333289223263E+00   0.00000000000000E+00   0.00000000000000E+00   4.41100737894650E-03
     -1.86031451277311E-18   4.41100737894649E-03   2.77863992711576E-13   0.00000000000000E+00   4.41100737894650E-07
      0.00000000000000E+00   0.00000000000000E+00  -4.41100737894648E-03  -2.41473916204828E-17  -4.41100737894651E-03
     -2.78384573266532E-13
      5.86333333333334E-01
      5.86333333333334E+00   5.86333285694783E+00   0.00000000000000E+00   0.00000000000000E+00   4.76385519995409E-03
      1.36703254327441E-18   4.76385519995409E-03   2.78551973569933E-13   0.00000000000000E+00   4.76385519995408E-07
      0.00000000000000E+00   0.00000000000000E+00  -4.76385519995410E-03  -6.12760055902807E-20  -4.76385519995410E-03
     -2.79062969638995E-13
      5.96333333333334E-01
      5.96333333333334E+00   5.96333282149695E+00   0.00000000000000E+00   0.00000000000000E+00   5.11836349596404E-03
      5.10978183651115E-19   5.11836349596404E-03   2.79227906496306E-13   0.00000000000000E+00   5.11836349596404E-07
      0.00000000000000E+00   0.00000000000000E+00  -5.11836349596402E-03  -6.00513122292180E-17  -5.11836349596408E-03
     -2.79730288230817E-13
      6.06333333333334E-01
      6.06333333333334E+00   6.06333278588458E+00   0.00000000000000E+00   0.00000000000000E+00   5.47448758719288E-03
      2.60134348040568E-18   5.47448758719288E-03   2.79892157216807E-13   0.00000000000000E+00   5.47448758719287E-07
      0.00000000000000E+00   0.00000000000000E+00  -5.47448758719289E-03  -5.85939196258044E-17  -5.47448758719295E-03
     -2.80386732146847E-13
      6.16333333333334E-01
      6.16333333333334E+00   6.16333275011483E+00   0.00000000000000E+00   0.00000000000000E+00   5.83218513442669E-03
      1.34712430235294E-18   5.83218513442669E-03   2.80545070926875E-13   0.00000000000000E+00   5.83218513442670E-07
      0.00000000000000E+00   0.00000000000000E+00  -5.83218513442663E-03  -6.97329690631521E-17  -5.83218513442670E-03
     -2.81032520274340E-13
      6.26333333333334E-01
      6.26333333333334E+00   6.26333271419176E+00   0.00000000000000E+00   0.00000000000000E+00   6.19141584179105E-03
      5.97247227644160E-19   6.19141584179105E-03   2.81186974790717E-13   0.00000000000000E+00   6.19141584179105E-07
      0.00000000000000E+00   0.00000000000000E+00  -6.19141584179106E-03  -7.47334767021719E-18  -6.19141584179107E-03
     -2.81667879926456E-13
      6.36333333333334E-01
      6.36333333333334E+00   6.36333267811921E+00   0.00000000000000E+00   0.00000000000000E+00   6.55214122156662E-03
      3.90940339001715E-16   6.55214122156701E-03   2.81818179958357E-13   0.00000000000000E+00   6.55214122156692E-07
      0.00000000000000E+00   0.00000000000000E+00  -6.55214122156955E-03   2.57662458704481E-15  -6.55214122156697E-03
     -2.82293042095941E-13
      6.46333333333334E-01
      6.46333333333334E+00   6.46333264190086E+00   0.00000000000000E+00   0.00000000000000E+00   6.91432440508182E-03
      3.36082075129214E-16   6.91432440508216E-03   2.82438983214187E-13   0.00000000000000E+00   6.91432440508209E-07
      0.00000000000000E+00   0.00000000000000E+00  -6.91432440508609E-03   3.98508312614402E-15  -6.91432440508210E-03
     -2.82908238343712E-13
      6.56333333333334E-01
      6.56333333333334E+00   6.56333260554039E+00   0.00000000000000E+00   0.00000000000000E+00   7.27792998811363E-03
      3.02751255773132E-16   7.27792998811393E-03   2.83049668345104E-13   0.00000000000000E+00   7.27792998811389E-07
      0.00000000000000E+00   0.00000000000000E+00  -7.27792998812012E-03   6.19620108613374E-15  -7.27792998811393E-03
     -2.83513698743331E-13
      6.66333333333334E-01
      6.66333333333334E+00   6.66333256904090E+00   0.00000000000000E+00   0.00000000000000E+00   7.64292389834077E-03
      2.77994252173897E-16   7.64292389834105E-03   2.83650507336310E-13   0.00000000000000E+00   7.64292389834099E-07
      0.00000000000000E+00   0.00000000000000E+00  -7.64292389835009E-03   9.07533349947439E-15  -7.64292389834101E-03
     -2.84109650567549E-13
      6.76333333333334E-01
      6.76333333333334E+00   6.76333253240600E+00   0.00000000000000E+00   0.00000000000000E+00   8.00927330135376E-03
      2.49941328688774E-16   8.00927330135401E-03   2.84241761218661E-13   0.00000000000000E+00   8.00927330135399E-07
      0.00000000000000E+00   0.00000000000000E+00  -8.00927330136706E-03   1.30766417077792E-14  -8.00927330135399E-03
     -2.84696317265653E-13
      6.86333333333334E-01
      6.86333333333334E+00   6.86333249563868E+00   0.00000000000000E+00   0.00000000000000E+00   8.37694650347505E-03
      2.33355551974419E-16   8.37694650347528E-03   2.84823680978007E-13   0.00000000000000E+00   8.37694650347526E-07
      0.00000000000000E+00   0.00000000000000E+00  -8.37694650349338E-03   1.80671920590074E-14  -8.37694650347532E-03
     -2.85273917958844E-13
      6.96333333333334E-01
      6.96333333333334E+00   6.96333245874200E+00   0.00000000000000E+00   0.00000000000000E+00   8.74591287934162E-03
      2.26874313541095E-16   8.74591287934185E-03   2.85396508242893E-13   0.00000000000000E+00   8.74591287934182E-07
      0.00000000000000E+00   0.00000000000000E+00  -8.74591287936592E-03   2.40520468038950E-14  -8.74591287934187E-03
     -2.85842667044454E-13
      7.06333333333334E-01