DF-ISE text

Info {
  version   = 1.0
  type      = xyplot
  datasets  = [
    "time"
    "ntype OuterVoltage" "ntype InnerVoltage" "ntype QuasiFermiPotential" "ntype DisplacementCurrent" "ntype eCurrent"
    "ntype hCurrent" "ntype TotalCurrent" "ntype Charge" "ptype OuterVoltage" "ptype InnerVoltage"
    "ptype QuasiFermiPotential" "ptype DisplacementCurrent" "ptype eCurrent" "ptype hCurrent" "ptype TotalCurrent"
    "ptype Charge" ]
  functions = [
    Time
    OuterVoltage InnerVoltage QuasiFermiPotential DisplacementCurrent eCurrent
    hCurrent TotalCurrent Charge OuterVoltage InnerVoltage
    QuasiFermiPotential DisplacementCurrent eCurrent hCurrent TotalCurrent
    Charge ]
}

Data {
      1.00000000000000E-02
      1.00000000000000E-01   9.99999999207339E-02   0.00000000000000E+00   0.00000000000000E+00   7.92661579909789E-07
     -4.16386488847945E-17   7.92661579868150E-07   1.06702320643555E-13   0.00000000000000E+00   7.92661579868160E-11
      0.00000000000000E+00   0.00000000000000E+00  -7.92661579918533E-07   5.03782087199618E-17  -7.92661579868155E-07
     -1.08311957494713E-13
      2.00000000000000E-02
      2.00000000000000E-01   1.99999999919940E-01   0.00000000000000E+00   0.00000000000000E+00   8.00598108208732E-07
     -9.03191281056213E-18   8.00598108199700E-07   1.16428921442298E-13   0.00000000000000E+00   8.00598108199704E-11
      0.00000000000000E+00   0.00000000000000E+00  -8.00598108151319E-07  -4.83875176484511E-17  -8.00598108199706E-07
     -1.18038558340392E-13
      3.00000000000000E-02
      3.00000000000000E-01   2.99999999919198E-01   0.00000000000000E+00   0.00000000000000E+00   8.08034045621784E-07
     -6.83686784284177E-18   8.08034045614947E-07   1.25605668065387E-13   0.00000000000000E+00   8.08034045614946E-11
      0.00000000000000E+00   0.00000000000000E+00  -8.08034045613931E-07  -9.90845821767508E-19  -8.08034045614922E-07
     -1.27215305016887E-13
      4.00000000000000E-02
      4.00000000000000E-01   3.99999999918482E-01   0.00000000000000E+00   0.00000000000000E+00   8.15178937374298E-07
     -5.90599192077579E-18   8.15178937368392E-07   1.34321997292852E-13   0.00000000000000E+00   8.15178937368390E-11
      0.00000000000000E+00   0.00000000000000E+00  -8.15178937376595E-07   8.23260544113031E-18  -8.15178937368363E-07
     -1.35931634302876E-13
      5.00000000000000E-02
      5.00000000000000E-01   4.99999999917799E-01   0.00000000000000E+00   0.00000000000000E+00   8.22034978963381E-07
     -4.93299696495447E-18   8.22034978958448E-07   1.42645078952014E-13   0.00000000000000E+00   8.22034978958449E-11
      0.00000000000000E+00   0.00000000000000E+00  -8.22034978947809E-07  -1.06505573082042E-17  -8.22034978958459E-07
     -1.44254716024866E-13
      6.00000000000000E-02
      6.00000000000000E-01   5.99999999917134E-01   0.00000000000000E+00   0.00000000000000E+00   8.28685250192428E-07
     -3.95212429649069E-18   8.28685250188476E-07   1.50626990177651E-13   0.00000000000000E+00   8.28685250188474E-11
      0.00000000000000E+00   0.00000000000000E+00  -8.28685250158005E-07  -3.04229660347410E-17  -8.28685250188428E-07
     -1.52236627316383E-13
      7.00000000000000E-02
      7.00000000000000E-01   6.99999999916476E-01   0.00000000000000E+00   0.00000000000000E+00   8.35280974379593E-07
     -3.20782184246637E-18   8.35280974376385E-07   1.58309123989227E-13   0.00000000000000E+00   8.35280974376390E-11
      0.00000000000000E+00   0.00000000000000E+00  -8.35280974386924E-07   1.05048314235695E-17  -8.35280974376419E-07
     -1.59918761195252E-13
      8.00000000000000E-02
      8.00000000000000E-01   7.99999999915821E-01   0.00000000000000E+00   0.00000000000000E+00   8.41825523489889E-07
     -2.70107525360340E-18   8.41825523487188E-07   1.65725020397694E-13   0.00000000000000E+00   8.41825523487185E-11
      0.00000000000000E+00   0.00000000000000E+00  -8.41825523480289E-07  -6.89051109940845E-18  -8.41825523487179E-07
     -1.67334657671312E-13
      9.00000000000000E-02
      9.00000000000000E-01   8.99999999915168E-01   0.00000000000000E+00   0.00000000000000E+00   8.48279691241459E-07
     -2.18559930019006E-18   8.48279691239274E-07   1.72902249680855E-13   0.00000000000000E+00   8.48279691239275E-11
      0.00000000000000E+00   0.00000000000000E+00  -8.48279691249654E-07   1.04004284719150E-17  -8.48279691239253E-07
     -1.74511887021439E-13
      1.00000000000000E-01
      1.00000000000000E+00   9.99999999914536E-01   0.00000000000000E+00   0.00000000000000E+00   8.54696181913629E-07
     -1.83219656617786E-18   8.54696181911797E-07   1.79863731363693E-13   0.00000000000000E+00   8.54696181911802E-11
      0.00000000000000E+00   0.00000000000000E+00  -8.54696181922201E-07   1.03977995415593E-17  -8.54696181911804E-07
     -1.81473368769372E-13
      1.10000000000000E-01
      1.10000000000000E+00   1.09999999991388E+00   0.00000000000000E+00   0.00000000000000E+00   8.61207887000614E-07
     -1.48166160930197E-18   8.61207886999132E-07   1.86628707521252E-13   0.00000000000000E+00   8.61207886999131E-11
      0.00000000000000E+00   0.00000000000000E+00  -8.61207886957086E-07  -4.20475315465955E-17  -8.61207886999134E-07
     -1.88238344988691E-13
      1.20000000000000E-01
      1.20000000000000E+00   1.19999999991320E+00   0.00000000000000E+00   0.00000000000000E+00   8.67926957047145E-07
     -1.24128832625630E-18   8.67926957045904E-07   1.93213487547063E-13   0.00000000000000E+00   8.67926957045904E-11
      0.00000000000000E+00   0.00000000000000E+00  -8.67926957034455E-07  -1.14617883054994E-17  -8.67926957045917E-07
     -1.94823125071629E-13
      1.30000000000000E-01
      1.30000000000000E+00   1.29999999991252E+00   0.00000000000000E+00   0.00000000000000E+00   8.74874573464703E-07
     -1.03448191487743E-18   8.74874573463669E-07   1.99632027853443E-13   0.00000000000000E+00   8.74874573463669E-11
      0.00000000000000E+00   0.00000000000000E+00  -8.74874573445194E-07  -1.84593633777326E-17  -8.74874573463653E-07
     -2.01241665429718E-13
      1.40000000000000E-01
      1.40000000000000E+00   1.39999999991179E+00   0.00000000000000E+00   0.00000000000000E+00   8.82028006664854E-07
     -8.88773967252664E-19   8.82028006663965E-07   2.05896384574378E-13   0.00000000000000E+00   8.82028006663963E-11
      0.00000000000000E+00   0.00000000000000E+00  -8.82028006625582E-07  -3.83853499017474E-17  -8.82028006663967E-07
     -2.07506022196486E-13
      1.50000000000000E-01
      1.50000000000000E+00   1.49999999991107E+00   0.00000000000000E+00   0.00000000000000E+00   8.89378791180594E-07
     -7.61666202605524E-19   8.89378791179832E-07   2.12017069895037E-13   0.00000000000000E+00   8.89378791179831E-11
      0.00000000000000E+00   0.00000000000000E+00  -8.89378791178043E-07  -1.79761805886516E-18  -8.89378791179840E-07
     -2.13626707556708E-13
      1.60000000000000E-01
      1.60000000000000E+00   1.59999999991030E+00   0.00000000000000E+00   0.00000000000000E+00   8.97006817771379E-07
     -6.72425895238460E-19   8.97006817770707E-07   2.18003331967537E-13   0.00000000000000E+00   8.97006817770701E-11
      0.00000000000000E+00   0.00000000000000E+00  -8.97006817783005E-07   1.22872697144757E-17  -8.97006817770718E-07
     -2.19612969661879E-13
      1.70000000000000E-01
      1.70000000000000E+00   1.69999999990951E+00   0.00000000000000E+00   0.00000000000000E+00   9.05019767049623E-07
     -5.86087050351885E-19   9.05019767049036E-07   2.23863378657491E-13   0.00000000000000E+00   9.05019767049037E-11
      0.00000000000000E+00   0.00000000000000E+00  -9.05019767057137E-07   8.10866717282542E-18  -9.05019767049029E-07
     -2.25473016376994E-13
      1.80000000000000E-01
      1.80000000000000E+00   1.79999999990864E+00   0.00000000000000E+00   0.00000000000000E+00   9.13544534874532E-07
     -5.25754843795516E-19   9.13544534874006E-07   2.29604552281880E-13   0.00000000000000E+00   9.13544534874003E-11
      0.00000000000000E+00   0.00000000000000E+00  -9.13544534866971E-07  -7.05569575304076E-18  -9.13544534874027E-07
     -2.31214190018409E-13
      1.90000000000000E-01
      1.90000000000000E+00   1.89999999990773E+00   0.00000000000000E+00   0.00000000000000E+00   9.22686805919359E-07
     -4.58521732071913E-19   9.22686805918900E-07   2.35233468103225E-13   0.00000000000000E+00   9.22686805918899E-11
      0.00000000000000E+00   0.00000000000000E+00  -9.22686805943681E-07   2.47742100753054E-17  -9.22686805918907E-07
     -2.36843105848202E-13
      2.00000000000000E-01
      2.00000000000000E+00   1.99999999990676E+00   0.00000000000000E+00   0.00000000000000E+00   9.32524607569246E-07
     -4.12519500444772E-19   9.32524607568834E-07   2.40756122718714E-13   0.00000000000000E+00   9.32524607568835E-11
      0.00000000000000E+00   0.00000000000000E+00  -9.32524607590079E-07   2.12249169053151E-17  -9.32524607568854E-07
     -2.42365760463297E-13
      2.10000000000000E-01
      2.10000000000000E+00   2.09999999990569E+00   0.00000000000000E+00   0.00000000000000E+00   9.43101508943765E-07
     -3.55081195730521E-19   9.43101508943410E-07   2.46177979428473E-13   0.00000000000000E+00   9.43101508943409E-11
      0.00000000000000E+00   0.00000000000000E+00  -9.43101508942235E-07  -1.18180367562308E-18  -9.43101508943417E-07
     -2.47787617163778E-13
      2.20000000000000E-01
      2.20000000000000E+00   2.19999999990455E+00   0.00000000000000E+00   0.00000000000000E+00   9.54427726538643E-07
     -3.15551208077270E-19   9.54427726538328E-07   2.51504035007539E-13   0.00000000000000E+00   9.54427726538326E-11
      0.00000000000000E+00   0.00000000000000E+00  -9.54427726543245E-07   4.90957426840920E-18  -9.54427726538336E-07
     -2.53113672724825E-13
      2.30000000000000E-01
      2.30000000000000E+00   2.29999999990334E+00   0.00000000000000E+00   0.00000000000000E+00   9.66552778179068E-07
     -2.81362946444378E-19   9.66552778178787E-07   2.56738869857373E-13   0.00000000000000E+00   9.66552778178785E-11
      0.00000000000000E+00   0.00000000000000E+00  -9.66552778175544E-07  -3.23139466206560E-18  -9.66552778178776E-07
     -2.58348507547866E-13
      2.40000000000000E-01
      2.40000000000000E+00   2.39999999990206E+00   0.00000000000000E+00   0.00000000000000E+00   9.79547030349712E-07
     -2.57778210103712E-19   9.79547030349454E-07   2.61886688816335E-13   0.00000000000000E+00   9.79547030349451E-11
      0.00000000000000E+00   0.00000000000000E+00  -9.79547030349301E-07  -1.54292968259450E-19  -9.79547030349456E-07
     -2.63496326471141E-13
      2.50000000000000E-01
      2.50000000000000E+00   2.49999999990065E+00   0.00000000000000E+00   0.00000000000000E+00   9.93540196601293E-07
     -2.42414857922878E-19   9.93540196601051E-07   2.66951351252324E-13   0.00000000000000E+00   9.93540196601050E-11
      0.00000000000000E+00   0.00000000000000E+00  -9.93540196591381E-07  -9.65912894122857E-18  -9.93540196601040E-07
     -2.68560988862060E-13
      2.60000000000000E-01
      2.60000000000000E+00   2.59999999989914E+00   0.00000000000000E+00   0.00000000000000E+00   1.00866707177966E-06
     -2.20591885334005E-19   1.00866707177944E-06   2.71936396608404E-13   0.00000000000000E+00   1.00866707177945E-10
      0.00000000000000E+00   0.00000000000000E+00  -1.00866707177806E-06  -1.36560570731675E-18  -1.00866707177942E-06
     -2.73546034163146E-13
      2.70000000000000E-01
      2.70000000000000E+00   2.69999999989748E+00   0.00000000000000E+00   0.00000000000000E+00   1.02507615980786E-06
     -2.02616805135963E-19   1.02507615980766E-06   2.76845063630275E-13   0.00000000000000E+00   1.02507615980766E-10
      0.00000000000000E+00   0.00000000000000E+00  -1.02507615982158E-06   1.39188744174203E-17  -1.02507615980766E-06
     -2.78454701119378E-13
      2.80000000000000E-01
      2.80000000000000E+00   2.79999999989569E+00   0.00000000000000E+00   0.00000000000000E+00   1.04293258422784E-06
     -1.80404662188093E-19   1.04293258422766E-06   2.81680307063710E-13   0.00000000000000E+00   1.04293258422766E-10
      0.00000000000000E+00   0.00000000000000E+00  -1.04293258420590E-06  -2.17627220847423E-17  -1.04293258422766E-06
     -2.83289944475645E-13
      2.90000000000000E-01
      2.90000000000000E+00   2.89999999989378E+00   0.00000000000000E+00   0.00000000000000E+00   1.06238557496763E-06
     -1.65461127953937E-19   1.06238557496746E-06   2.86444814289507E-13   0.00000000000000E+00   1.06238557496746E-10
      0.00000000000000E+00   0.00000000000000E+00  -1.06238557494241E-06  -2.50688495464061E-17  -1.06238557496748E-06
     -2.88054451611778E-13
      3.00000000000000E-01
      3.00000000000000E+00   2.99999999989164E+00   0.00000000000000E+00   0.00000000000000E+00   1.08360695058361E-06
     -1.57593001120841E-19   1.08360695058345E-06   2.91141020799276E-13   0.00000000000000E+00   1.08360695058345E-10
      0.00000000000000E+00   0.00000000000000E+00  -1.08360695055948E-06  -2.39463521504259E-17  -1.08360695058343E-06
     -2.92750658018169E-13
      3.10000000000000E-01
      3.10000000000000E+00   3.09999999988931E+00   0.00000000000000E+00   0.00000000000000E+00   1.10674588161275E-06
     -1.49938259804619E-19   1.10674588161260E-06   2.95771129340659E-13   0.00000000000000E+00   1.10674588161259E-10
      0.00000000000000E+00   0.00000000000000E+00  -1.10674588158399E-06  -2.85984381715129E-17  -1.10674588161259E-06
     -2.97380766441219E-13
      3.20000000000000E-01
      3.20000000000000E+00   3.19999999988682E+00   0.00000000000000E+00   0.00000000000000E+00   1.13194353096105E-06
     -1.50070165941910E-19   1.13194353096090E-06   3.00337130113920E-13   0.00000000000000E+00   1.13194353096090E-10
      0.00000000000000E+00   0.00000000000000E+00  -1.13194353092957E-06  -3.12984112422910E-17  -1.13194353096087E-06
     -3.01946767079796E-13
      3.30000000000000E-01
      3.30000000000000E+00   3.29999999988404E+00   0.00000000000000E+00   0.00000000000000E+00   1.15935856432663E-06
     -1.51376671254661E-19   1.15935856432648E-06   3.04840823579150E-13   0.00000000000000E+00   1.15935856432648E-10
      0.00000000000000E+00   0.00000000000000E+00  -1.15935856430737E-06  -1.90831475018680E-17  -1.15935856432646E-06
     -3.06450460392348E-13
      3.40000000000000E-01
      3.40000000000000E+00   3.39999999988110E+00   0.00000000000000E+00   0.00000000000000E+00   1.18914830173566E-06
     -1.55136198684534E-19   1.18914830173551E-06   3.09283846747935E-13   0.00000000000000E+00   1.18914830173551E-10
      0.00000000000000E+00   0.00000000000000E+00  -1.18914830171246E-06  -2.30384280855804E-17  -1.18914830173550E-06
     -3.10893483388592E-13
      3.50000000000000E-01
      3.50000000000000E+00   3.49999999987783E+00   0.00000000000000E+00   0.00000000000000E+00   1.22152831251521E-06
     -1.66137332548224E-19   1.22152831251504E-06   3.13667698270798E-13   0.00000000000000E+00   1.22152831251504E-10
      0.00000000000000E+00   0.00000000000000E+00  -1.22152831245499E-06  -6.00221481128878E-17  -1.22152831251502E-06
     -3.15277334716606E-13
      3.60000000000000E-01
      3.60000000000000E+00   3.59999999987433E+00   0.00000000000000E+00   0.00000000000000E+00   1.25675321367041E-06
     -1.82387169578033E-19   1.25675321367023E-06   3.17993760572361E-13   0.00000000000000E+00   1.25675321367023E-10
      0.00000000000000E+00   0.00000000000000E+00  -1.25675321363254E-06  -3.76940370015166E-17  -1.25675321367023E-06
     -3.19603396798045E-13
      3.70000000000000E-01
      3.70000000000000E+00   3.69999999987048E+00   0.00000000000000E+00   0.00000000000000E+00   1.29510043098184E-06
     -2.12398718556664E-19   1.29510043098162E-06   3.22263304738703E-13   0.00000000000000E+00   1.29510043098163E-10
      0.00000000000000E+00   0.00000000000000E+00  -1.29510043093261E-06  -4.89970164331756E-17  -1.29510043098160E-06
     -3.23872940715437E-13
      3.80000000000000E-01
      3.80000000000000E+00   3.79999999986630E+00   0.00000000000000E+00   0.00000000000000E+00   1.33690350021156E-06
     -2.71874750323241E-19   1.33690350021129E-06   3.26477449505062E-13   0.00000000000000E+00   1.33690350021128E-10
      0.00000000000000E+00   0.00000000000000E+00  -1.33690350015678E-06  -5.45024655259741E-17  -1.33690350021129E-06
     -3.28087085199729E-13
      3.90000000000000E-01
      3.90000000000000E+00   3.89999999986176E+00   0.00000000000000E+00   0.00000000000000E+00   1.38250285700308E-06
     -4.65218229980337E-19   1.38250285700261E-06   3.30637016693132E-13   0.00000000000000E+00   1.38250285700262E-10
      0.00000000000000E+00   0.00000000000000E+00  -1.38250285692900E-06  -7.35808479864730E-17  -1.38250285700258E-06
     -3.32246652067710E-13
      4.00000000000000E-01
      4.00000000000000E+00   3.99999999985679E+00   0.00000000000000E+00   0.00000000000000E+00   1.43226378519169E-06
     -1.45225376379611E-18   1.43226378519024E-06   3.34742147464798E-13   0.00000000000000E+00   1.43226378519024E-10
      0.00000000000000E+00   0.00000000000000E+00  -1.43226378509613E-06  -9.40869996411561E-17  -1.43226378519021E-06
     -3.36351782475570E-13
      4.10000000000000E-01
      4.10000000000000E+00   4.09999999985134E+00   0.00000000000000E+00   0.00000000000000E+00   1.48658143740432E-06
     -7.51164300393685E-18   1.48658143739680E-06   3.38791398588932E-13   0.00000000000000E+00   1.48658143739680E-10
      0.00000000000000E+00   0.00000000000000E+00  -1.48658143725364E-06  -1.43154624114378E-16  -1.48658143739679E-06
     -3.40401033185465E-13
      4.20000000000000E-01
      4.20000000000000E+00   4.19999999984542E+00   0.00000000000000E+00   0.00000000000000E+00   1.54580757403491E-06
     -4.22397352965943E-17   1.54580757399267E-06   3.42779808613663E-13   0.00000000000000E+00   1.54580757399268E-10
      0.00000000000000E+00   0.00000000000000E+00  -1.54580757409700E-06   1.04346315852843E-16  -1.54580757399265E-06
     -3.44389442738214E-13
      4.30000000000000E-01
      4.30000000000000E+00   4.29999999983900E+00   0.00000000000000E+00   0.00000000000000E+00   1.61022845476068E-06
      1.55749150438165E-21   1.61022845476068E-06   3.46695362161917E-13   0.00000000000000E+00   1.61022845476068E-10
      0.00000000000000E+00   0.00000000000000E+00  -1.61022845474488E-06  -1.58228497074578E-17  -1.61022845476070E-06
     -3.48304995748933E-13
      4.40000000000000E-01
      4.40000000000000E+00   4.39999999983201E+00   0.00000000000000E+00   0.00000000000000E+00   1.67992226352802E-06
      6.12222692074293E-21   1.67992226352803E-06   3.50513193172081E-13   0.00000000000000E+00   1.67992226352803E-10
      0.00000000000000E+00   0.00000000000000E+00  -1.67992226351957E-06  -8.44477810768249E-18  -1.67992226352802E-06
     -3.52122826148711E-13
      4.50000000000000E-01
      4.50000000000000E+00   4.49999999982458E+00   0.00000000000000E+00   0.00000000000000E+00   1.75445763207372E-06
     -4.45311069150061E-19   1.75445763207327E-06   3.54184188481732E-13   0.00000000000000E+00   1.75445763207328E-10
      0.00000000000000E+00   0.00000000000000E+00  -1.75445763215851E-06   8.52372540903216E-17  -1.75445763207328E-06
     -3.55793820771344E-13
      4.60000000000000E-01
      4.60000000000000E+00   4.59999999981676E+00   0.00000000000000E+00   0.00000000000000E+00   1.83267808077833E-06
     -5.24069536999248E-18   1.83267808077308E-06   3.57634692682450E-13   0.00000000000000E+00   1.83267808077308E-10
      0.00000000000000E+00   0.00000000000000E+00  -1.83267808081407E-06   4.10056682823395E-17  -1.83267808077306E-06
     -3.59244324211124E-13
      4.70000000000000E-01
      4.70000000000000E+00   4.69999999980845E+00   0.00000000000000E+00   0.00000000000000E+00   1.91544036702323E-06
      1.18144425341475E-19   1.91544036702334E-06   3.60908043713463E-13   0.00000000000000E+00   1.91544036702334E-10
      0.00000000000000E+00   0.00000000000000E+00  -1.91544036716481E-06   1.41472696665929E-16  -1.91544036702334E-06
     -3.62517674393150E-13
      4.80000000000000E-01
      4.80000000000000E+00   4.79999999979946E+00   0.00000000000000E+00   0.00000000000000E+00   2.00553825359463E-06
     -8.89504918969439E-19   2.00553825359374E-06   3.64129204721039E-13   0.00000000000000E+00   2.00553825359375E-10
      0.00000000000000E+00   0.00000000000000E+00  -2.00553825346758E-06  -1.26190425293539E-16  -2.00553825359377E-06
     -3.65738834428181E-13
      4.90000000000000E-01
      4.90000000000000E+00   4.89999999978955E+00   0.00000000000000E+00   0.00000000000000E+00   2.10479473274703E-06
     -2.65783441012979E-21   2.10479473274703E-06   3.67332085019429E-13   0.00000000000000E+00   2.10479473274704E-10
      0.00000000000000E+00   0.00000000000000E+00  -2.10479473275700E-06   9.95818942196604E-18  -2.10479473274704E-06
     -3.68941713598157E-13
      5.00000000000000E-01
      5.00000000000000E+00   4.99999999977854E+00   0.00000000000000E+00   0.00000000000000E+00   2.21478172095718E-06
     -1.03067702361733E-21   2.21478172095718E-06   3.70522682171579E-13   0.00000000000000E+00   2.21478172095717E-10
      0.00000000000000E+00   0.00000000000000E+00  -2.21478172094935E-06  -7.82178617439094E-18  -2.21478172095717E-06
     -3.72132309430585E-13
      5.10000000000000E-01
      5.10000000000000E+00   5.09999999976627E+00   0.00000000000000E+00   0.00000000000000E+00   2.33710917181004E-06
     -2.01815039940161E-21   2.33710917181004E-06   3.73703352536722E-13   0.00000000000000E+00   2.33710917181003E-10
      0.00000000000000E+00   0.00000000000000E+00  -2.33710917180035E-06  -9.71725608170618E-18  -2.33710917181007E-06
     -3.75312978242519E-13
      5.20000000000000E-01
      5.20000000000000E+00   5.19999999975263E+00   0.00000000000000E+00   0.00000000000000E+00   2.47362009909849E-06
      2.06108516933238E-16   2.47362009930460E-06   3.76875594857240E-13   0.00000000000000E+00   2.47362009930458E-10
      0.00000000000000E+00   0.00000000000000E+00  -2.47362009956696E-06   2.62367376892650E-16  -2.47362009930459E-06
     -3.78485218723675E-13
      5.30000000000000E-01
      5.30000000000000E+00   5.29999999973734E+00   0.00000000000000E+00   0.00000000000000E+00   2.62645838992366E-06
      1.81316249301539E-16   2.62645839010498E-06   3.80040500621415E-13   0.00000000000000E+00   2.62645839010495E-10
      0.00000000000000E+00   0.00000000000000E+00  -2.62645839106000E-06   9.55015159854499E-16  -2.62645839010499E-06
     -3.81650122295769E-13
      5.40000000000000E-01
      5.40000000000000E+00   5.39999999972023E+00   0.00000000000000E+00   0.00000000000000E+00   2.79810404835710E-06
      1.70091718960713E-16   2.79810404852720E-06   3.83198892885728E-13   0.00000000000000E+00   2.79810404852718E-10
      0.00000000000000E+00   0.00000000000000E+00  -2.79810404999818E-06   1.47095610463058E-15  -2.79810404852722E-06
     -3.84808511931173E-13
      5.50000000000000E-01
      5.50000000000000E+00   5.49999999970084E+00   0.00000000000000E+00   0.00000000000000E+00   2.99146039795424E-06
      1.66175651753647E-16   2.99146039812041E-06   3.86351395309110E-13   0.00000000000000E+00   2.99146039812040E-10
      0.00000000000000E+00   0.00000000000000E+00  -2.99146040040392E-06   2.28352493279304E-15  -2.99146039812040E-06
     -3.87961011181246E-13
      5.60000000000000E-01
      5.60000000000000E+00   5.59999999967904E+00   0.00000000000000E+00   0.00000000000000E+00   3.20996808738616E-06
      1.66561072846080E-16   3.20996808755272E-06   3.89498476363649E-13   0.00000000000000E+00   3.20996808755271E-10
      0.00000000000000E+00   0.00000000000000E+00  -3.20996809022180E-06   2.66904848863408E-15  -3.20996808755275E-06
     -3.91108088379442E-13
      5.70000000000000E-01
      5.70000000000000E+00   5.69999999965420E+00   0.00000000000000E+00   0.00000000000000E+00   3.45769932958507E-06
      1.69125679184642E-16   3.45769932975420E-06   3.92640481321981E-13   0.00000000000000E+00   3.45769932975417E-10
      0.00000000000000E+00   0.00000000000000E+00  -3.45769933286416E-06   3.10992098529337E-15  -3.45769932975423E-06
     -3.94250088618540E-13
      5.80000000000000E-01
      5.80000000000000E+00   5.79999999962604E+00   0.00000000000000E+00   0.00000000000000E+00   3.73947596626703E-06
      1.71721930575105E-16   3.73947596643875E-06   3.95777655738452E-13   0.00000000000000E+00   3.73947596643873E-10
      0.00000000000000E+00   0.00000000000000E+00  -3.73947596996551E-06   3.52670111956773E-15  -3.73947596643881E-06
     -3.97387257218443E-13
      5.90000000000000E-01
      5.90000000000000E+00   5.89999999959393E+00   0.00000000000000E+00   0.00000000000000E+00   4.06106029472212E-06
      1.73756381440811E-16   4.06106029489588E-06   3.98910161884856E-13   0.00000000000000E+00   4.06106029489585E-10
      0.00000000000000E+00   0.00000000000000E+00  -4.06106029880766E-06   3.91178506258278E-15  -4.06106029489588E-06
     -4.00519756142417E-13
      6.00000000000000E-01
      6.00000000000000E+00   5.99999999955705E+00   0.00000000000000E+00   0.00000000000000E+00   4.42940414805079E-06
      1.75467540759896E-16   4.42940414822626E-06   4.02038089851563E-13   0.00000000000000E+00   4.42940414822623E-10
      0.00000000000000E+00   0.00000000000000E+00  -4.42940415274330E-06   4.51700034171801E-15  -4.42940414822630E-06
     -4.03647675070645E-13
      6.10000000000000E-01
      6.10000000000000E+00   6.09999999951474E+00   0.00000000000000E+00   0.00000000000000E+00   4.85293129285398E-06
      1.76291958168303E-16   4.85293129303028E-06   4.05161464779901E-13   0.00000000000000E+00   4.85293129303025E-10
      0.00000000000000E+00   0.00000000000000E+00  -4.85293129787637E-06   4.84606684579040E-15  -4.85293129303030E-06
     -4.06771038594541E-13
      6.20000000000000E-01
      6.20000000000000E+00   6.19999999946580E+00   0.00000000000000E+00   0.00000000000000E+00   5.34187663794131E-06
      1.75199856898424E-16   5.34187663811651E-06   4.08280250591522E-13   0.00000000000000E+00   5.34187663811647E-10
      0.00000000000000E+00   0.00000000000000E+00  -5.34187664364678E-06   5.53026111664097E-15  -5.34187663811652E-06
     -4.09889809892443E-13
      6.30000000000000E-01
      6.30000000000000E+00   6.29999999940912E+00   0.00000000000000E+00   0.00000000000000E+00   5.90874203240523E-06
      1.71577285302205E-16   5.90874203257681E-06   4.11394349767146E-13   0.00000000000000E+00   5.90874203257676E-10
      0.00000000000000E+00   0.00000000000000E+00  -5.90874203884033E-06   6.26340606190963E-15  -5.90874203257692E-06
     -4.13003890430971E-13
      6.40000000000000E-01
      6.40000000000000E+00   6.39999999934313E+00   0.00000000000000E+00   0.00000000000000E+00   6.56892892957093E-06
      1.64324386784958E-16   6.56892892973525E-06   4.14503598580688E-13   0.00000000000000E+00   6.56892892973519E-10
      0.00000000000000E+00   0.00000000000000E+00  -6.56892893681020E-06   7.07498502454287E-15  -6.56892892973522E-06
     -4.16113115085283E-13
      6.50000000000000E-01
      6.50000000000000E+00   6.49999999926586E+00   0.00000000000000E+00   0.00000000000000E+00   7.34159910348589E-06
      1.50575391289829E-16   7.34159910363646E-06   4.17607757251547E-13   0.00000000000000E+00   7.34159910363638E-10
      0.00000000000000E+00   0.00000000000000E+00  -7.34159911136495E-06   7.72846345880159E-15  -7.34159910363649E-06
     -4.19217242121597E-13
      6.60000000000000E-01
      6.60000000000000E+00   6.59999999917492E+00   0.00000000000000E+00   0.00000000000000E+00   8.25082917612186E-06
      1.26082153251230E-16   8.25082917624794E-06   4.20706494161796E-13   0.00000000000000E+00   8.25082917624782E-10
      0.00000000000000E+00   0.00000000000000E+00  -8.25082918419208E-06   7.94417030039001E-15  -8.25082917624791E-06
     -4.22315937158711E-13
      6.70000000000000E-01
      6.70000000000000E+00   6.69999999906729E+00   0.00000000000000E+00   0.00000000000000E+00   9.32717756805432E-06
      8.71274224388993E-17   9.32717756814145E-06   4.23799362349835E-13   0.00000000000000E+00   9.32717756814139E-10
      0.00000000000000E+00   0.00000000000000E+00  -9.32717757564543E-06   7.50391019577493E-15  -9.32717756814152E-06
     -4.25408749270098E-13
      6.80000000000000E-01
      6.80000000000001E+00   6.79999999893906E+00   0.00000000000000E+00   0.00000000000000E+00   1.06098675976808E-05
      2.99977905069563E-17   1.06098675977108E-05   4.26885765041375E-13   0.00000000000000E+00   1.06098675977107E-09
      0.00000000000000E+00   0.00000000000000E+00  -1.06098676037787E-05   6.06774198331966E-15  -1.06098675977110E-05
     -4.28495075903297E-13
      6.90000000000000E-01
      6.90000000000000E+00   6.89999999878498E+00   0.00000000000000E+00   0.00000000000000E+00   1.21499133032343E-05
     -5.46296722917248E-17   1.21499133031797E-05   4.29964904924360E-13   0.00000000000000E+00   1.21499133031798E-09
      0.00000000000000E+00   0.00000000000000E+00  -1.21499133052700E-05   2.08985425550922E-15  -1.21499133031801E-05
     -4.31574111176821E-13
      7.00000000000000E-01
      7.00000000000000E+00   6.99999999859849E+00   0.00000000000000E+00   0.00000000000000E+00   1.40147084214460E-05
     -1.90710330191201E-16   1.40147084212553E-05   4.33035708668655E-13   0.00000000000000E+00   1.40147084212559E-09
      0.00000000000000E+00   0.00000000000000E+00  -1.40147084142896E-05  -6.96703730948537E-15  -1.40147084212567E-05
     -4.34644768794678E-13
      7.10000000000000E-01
      7.10000000000000E+00   7.09999999837054E+00   0.00000000000000E+00   0.00000000000000E+00   1.62949279361146E-05
     -4.27996302164542E-16   1.62949279356866E-05   4.36096712784586E-13   0.00000000000000E+00   1.62949279356883E-09
      0.00000000000000E+00   0.00000000000000E+00  -1.62949279075515E-05  -2.81387615355441E-14  -1.62949279356902E-05
     -4.37705565192824E-13
      7.20000000000000E-01