DF-ISE text

Info {
  version   = 1.0
  type      = xyplot
  datasets  = [
    "time"
    "ntype OuterVoltage" "ntype InnerVoltage" "ntype QuasiFermiPotential" "ntype DisplacementCurrent" "ntype eCurrent"
    "ntype hCurrent" "ntype TotalCurrent" "ntype Charge" "ptype OuterVoltage" "ptype InnerVoltage"
    "ptype QuasiFermiPotential" "ptype DisplacementCurrent" "ptype eCurrent" "ptype hCurrent" "ptype TotalCurrent"
    "ptype Charge" ]
  functions = [
    Time
    OuterVoltage InnerVoltage QuasiFermiPotential DisplacementCurrent eCurrent
    hCurrent TotalCurrent Charge OuterVoltage InnerVoltage
    QuasiFermiPotential DisplacementCurrent eCurrent hCurrent TotalCurrent
    Charge ]
}

Data {
      1.00000000000000E-02
      1.00000000000000E-01   9.99999999290019E-02   0.00000000000000E+00   0.00000000000000E+00   7.09980563992945E-07
     -1.17761320774634E-16   7.09980563875184E-07  -2.62494562634733E-30   0.00000000000000E+00   7.09980563875573E-11
      0.00000000000000E+00   0.00000000000000E+00  -7.09980563609686E-07  -2.65494584056289E-16  -7.09980563875180E-07
     -2.42612716406786E-27
      2.00000000000000E-02
      2.00000000000000E-01   1.99999999928291E-01   0.00000000000000E+00   0.00000000000000E+00   7.17093898348742E-07
     -5.44040585223758E-20   7.17093898348688E-07   5.09868470739815E-30   0.00000000000000E+00   7.17093898348723E-11
      0.00000000000000E+00   0.00000000000000E+00  -7.17093898325979E-07  -2.27080864645918E-17  -7.17093898348687E-07
      5.02658942660077E-28
      3.00000000000000E-02
      3.00000000000000E-01   2.99999999927643E-01   0.00000000000000E+00   0.00000000000000E+00   7.23555814118360E-07
     -4.29201238941512E-22   7.23555814118360E-07  -4.16725238837168E-30   0.00000000000000E+00   7.23555814118341E-11
      0.00000000000000E+00   0.00000000000000E+00  -7.23555814140433E-07   2.20715321531149E-17  -7.23555814118362E-07
      3.39462323147741E-27
      4.00000000000000E-02
      4.00000000000000E-01   3.99999999927040E-01   0.00000000000000E+00   0.00000000000000E+00   7.29592472865978E-07
     -7.87038626236796E-17   7.29592472787274E-07   9.97660785866339E-30   0.00000000000000E+00   7.29592472787219E-11
      0.00000000000000E+00   0.00000000000000E+00  -7.29592464997619E-07  -7.78965926134873E-15  -7.29592472787279E-07
      2.47364230886183E-27
      5.00000000000000E-02
      5.00000000000000E-01   4.99999999926458E-01   0.00000000000000E+00   0.00000000000000E+00   7.35403741364807E-07
     -3.40159610299578E-17   7.35403741330791E-07   1.80540615084027E-30   0.00000000000000E+00   7.35403741330880E-11
      0.00000000000000E+00   0.00000000000000E+00  -7.35403738308716E-07  -3.02207348437409E-15  -7.35403741330789E-07
      1.67856200412194E-27
      6.00000000000000E-02
      6.00000000000000E-01   5.99999999925887E-01   0.00000000000000E+00   0.00000000000000E+00   7.41119653058920E-07
     -1.17743159986256E-17   7.41119653047146E-07  -6.70449821844703E-30   0.00000000000000E+00   7.41119653047262E-11
      0.00000000000000E+00   0.00000000000000E+00  -7.41119652028583E-07  -1.01856148426304E-15  -7.41119653047144E-07
      3.11151619258785E-27
      7.00000000000000E-02
      7.00000000000000E-01   6.99999999925322E-01   0.00000000000000E+00   0.00000000000000E+00   7.46804747875585E-07
     -5.69305032138183E-18   7.46804747869892E-07   1.97778161247828E-29   0.00000000000000E+00   7.46804747869928E-11
      0.00000000000000E+00   0.00000000000000E+00  -7.46804747781524E-07  -8.83661135508638E-17  -7.46804747869890E-07
      5.91452264667634E-27
      8.00000000000000E-02
      8.00000000000000E-01   7.99999999924753E-01   0.00000000000000E+00   0.00000000000000E+00   7.52509414318147E-07
     -4.78752474723319E-18   7.52509414313360E-07   1.24533710706201E-29   0.00000000000000E+00   7.52509414313316E-11
      0.00000000000000E+00   0.00000000000000E+00  -7.52509413587550E-07  -7.25806799774915E-16  -7.52509414313356E-07
     -4.53285771837500E-27
      9.00000000000000E-02
      9.00000000000000E-01   8.99999999924165E-01   0.00000000000000E+00   0.00000000000000E+00   7.58313188074584E-07
     -4.08499468519606E-18   7.58313188070499E-07  -2.28624296488315E-30   0.00000000000000E+00   7.58313188070480E-11
      0.00000000000000E+00   0.00000000000000E+00  -7.58313187737665E-07  -3.32832483257460E-16  -7.58313188070497E-07
      2.61260717225113E-27
      1.00000000000000E-01
      1.00000000000000E+00   9.99999999923568E-01   0.00000000000000E+00   0.00000000000000E+00   7.64319505509953E-07
     -2.69588507787896E-18   7.64319505507257E-07   3.20255462937997E-30   0.00000000000000E+00   7.64319505507275E-11
      0.00000000000000E+00   0.00000000000000E+00  -7.64319505909382E-07   4.02117021572588E-16  -7.64319505507265E-07
      1.11525109201253E-27
      1.10000000000000E-01
      1.10000000000000E+00   1.09999999992293E+00   0.00000000000000E+00   0.00000000000000E+00   7.70602307393168E-07
     -1.29867667675275E-18   7.70602307391870E-07  -2.27414644125943E-30   0.00000000000000E+00   7.70602307391864E-11
      0.00000000000000E+00   0.00000000000000E+00  -7.70602307779714E-07   3.87845863481970E-16  -7.70602307391868E-07
     -4.38281243934637E-28
      1.20000000000000E-01
      1.20000000000000E+00   1.19999999992227E+00   0.00000000000000E+00   0.00000000000000E+00   7.77236722854065E-07
     -1.69403528324403E-20   7.77236722854048E-07   1.39049539054666E-29   0.00000000000000E+00   7.77236722854038E-11
      0.00000000000000E+00   0.00000000000000E+00  -7.77236723053852E-07   1.99809317610104E-16  -7.77236722854043E-07
     -8.04854295827860E-28
      1.30000000000000E-01
      1.30000000000000E+00   1.29999999992157E+00   0.00000000000000E+00   0.00000000000000E+00   7.84292233288822E-07
      1.01414494525691E-18   7.84292233289836E-07   1.55863706891637E-29   0.00000000000000E+00   7.84292233289831E-11
      0.00000000000000E+00   0.00000000000000E+00  -7.84292232884587E-07  -4.05250433502369E-16  -7.84292233289837E-07
      5.62144807232085E-27
      1.40000000000000E-01
      1.40000000000000E+00   1.39999999992081E+00   0.00000000000000E+00   0.00000000000000E+00   7.91820988165952E-07
      1.71650253023121E-18   7.91820988167669E-07  -1.34604066622949E-29   0.00000000000000E+00   7.91820988167666E-11
      0.00000000000000E+00   0.00000000000000E+00  -7.91820988170753E-07   3.08030776101250E-18  -7.91820988167673E-07
     -6.08832549810196E-27
      1.50000000000000E-01
      1.50000000000000E+00   1.49999999992001E+00   0.00000000000000E+00   0.00000000000000E+00   7.99882778542416E-07
      1.86724512044823E-18   7.99882778544284E-07   3.18168812612906E-29   0.00000000000000E+00   7.99882778544282E-11
      0.00000000000000E+00   0.00000000000000E+00  -7.99882778806789E-07   2.62508782182235E-16  -7.99882778544280E-07
     -8.44308317278986E-27
      1.60000000000000E-01
      1.60000000000000E+00   1.59999999991915E+00   0.00000000000000E+00   0.00000000000000E+00   8.08509586038197E-07
      1.48138699611543E-18   8.08509586039679E-07  -3.78621189422448E-30   0.00000000000000E+00   8.08509586039675E-11
      0.00000000000000E+00   0.00000000000000E+00  -8.08509586359682E-07   3.20003692518394E-16  -8.08509586039678E-07
     -2.04711888588945E-27
      1.70000000000000E-01
      1.70000000000000E+00   1.69999999991823E+00   0.00000000000000E+00   0.00000000000000E+00   8.17763696356379E-07
      8.51115507618981E-19   8.17763696357230E-07   2.85780370610394E-30   0.00000000000000E+00   8.17763696357232E-11
      0.00000000000000E+00   0.00000000000000E+00  -8.17763696709074E-07   3.51845591039753E-16  -8.17763696357229E-07
     -6.71744149872441E-28
      1.80000000000000E-01
      1.80000000000000E+00   1.79999999991723E+00   0.00000000000000E+00   0.00000000000000E+00   8.27693068549908E-07
      1.82754130561815E-19   8.27693068550090E-07  -6.77102909837749E-30   0.00000000000000E+00   8.27693068550084E-11
      0.00000000000000E+00   0.00000000000000E+00  -8.27693068822095E-07   2.72014451546197E-16  -8.27693068550081E-07
     -3.31730225247459E-27
      1.90000000000000E-01
      1.90000000000000E+00   1.89999999991617E+00   0.00000000000000E+00   0.00000000000000E+00   8.38384154805067E-07
     -7.46564502516879E-19   8.38384154804321E-07   1.42134152578715E-29   0.00000000000000E+00   8.38384154804318E-11
      0.00000000000000E+00   0.00000000000000E+00  -8.38384154846488E-07   4.21719762479640E-17  -8.38384154804316E-07
     -7.18441569669451E-27
      2.00000000000000E-01
      2.00000000000000E+00   1.99999999991500E+00   0.00000000000000E+00   0.00000000000000E+00   8.49902719351557E-07
     -4.19482139574417E-18   8.49902719347363E-07  -2.84812648720497E-29   0.00000000000000E+00   8.49902719347368E-11
      0.00000000000000E+00   0.00000000000000E+00  -8.49902719117330E-07  -2.30038346258795E-16  -8.49902719347369E-07
      5.06979820898470E-27
      2.10000000000000E-01
      2.10000000000000E+00   2.09999999991376E+00   0.00000000000000E+00   0.00000000000000E+00   8.62336647019261E-07
     -3.39976659052373E-17   8.62336646985263E-07   1.27194945903420E-29   0.00000000000000E+00   8.62336646985262E-11
      0.00000000000000E+00   0.00000000000000E+00  -8.62336646719115E-07  -2.66148473696448E-16  -8.62336646985264E-07
      3.15999905927173E-27
      2.20000000000000E-01
      2.20000000000000E+00   2.19999999991243E+00   0.00000000000000E+00   0.00000000000000E+00   8.75715485902586E-07
     -6.53316845992999E-16   8.75715485249269E-07   1.93241964888933E-29   0.00000000000000E+00   8.75715485249264E-11
      0.00000000000000E+00   0.00000000000000E+00  -8.75715481453509E-07  -3.79575694701334E-15  -8.75715485249266E-07
     -7.67451844783317E-28
      2.30000000000000E-01
      2.30000000000000E+00   2.29999999991102E+00   0.00000000000000E+00   0.00000000000000E+00   8.89900169472306E-07
     -3.10480269695446E-17   8.89900169441258E-07   2.34914488772650E-29   0.00000000000000E+00   8.89900169441257E-11
      0.00000000000000E+00   0.00000000000000E+00  -8.89900168947551E-07  -4.93701151204153E-16  -8.89900169441252E-07
      5.30679329982063E-27
      2.40000000000000E-01
      2.40000000000000E+00   2.39999999990954E+00   0.00000000000000E+00   0.00000000000000E+00   9.04464348215406E-07
      3.16432967527263E-21   9.04464348215409E-07  -6.80429453834272E-31   0.00000000000000E+00   9.04464348215413E-11
      0.00000000000000E+00   0.00000000000000E+00  -9.04464348425044E-07   2.09633233954757E-16  -9.04464348215411E-07
      4.50963239301746E-27
      2.50000000000000E-01
      2.50000000000000E+00   2.49999999990801E+00   0.00000000000000E+00   0.00000000000000E+00   9.19930613180683E-07
      8.00738434108844E-20   9.19930613180763E-07   6.75590844384784E-30   0.00000000000000E+00   9.19930613180763E-11
      0.00000000000000E+00   0.00000000000000E+00  -9.19930613622162E-07   4.41401303397548E-16  -9.19930613180760E-07
      2.32761307567628E-27
      2.60000000000000E-01
      2.60000000000000E+00   2.59999999990632E+00   0.00000000000000E+00   0.00000000000000E+00   9.36662278245830E-07
     -1.12042429878944E-18   9.36662278244710E-07  -2.01951461898012E-29   0.00000000000000E+00   9.36662278244710E-11
      0.00000000000000E+00   0.00000000000000E+00  -9.36662278093342E-07  -1.51377645969460E-16  -9.36662278244720E-07
     -2.67933159655957E-27
      2.70000000000000E-01
      2.70000000000000E+00   2.69999999990451E+00   0.00000000000000E+00   0.00000000000000E+00   9.55068946855713E-07
     -1.10055082330333E-19   9.55068946855603E-07  -1.23747436670660E-29   0.00000000000000E+00   9.55068946855599E-11
      0.00000000000000E+00   0.00000000000000E+00  -9.55068946982397E-07   1.26795746687386E-16  -9.55068946855602E-07
      4.86377021862550E-27
      2.80000000000000E-01
      2.80000000000000E+00   2.79999999990246E+00   0.00000000000000E+00   0.00000000000000E+00   9.75458094169868E-07
     -2.39614924014797E-19   9.75458094169628E-07  -1.00340663458761E-29   0.00000000000000E+00   9.75458094169629E-11
      0.00000000000000E+00   0.00000000000000E+00  -9.75458093545957E-07  -6.23675016146030E-16  -9.75458094169632E-07
      2.13034296842065E-27
      2.90000000000000E-01
      2.90000000000000E+00   2.89999999990020E+00   0.00000000000000E+00   0.00000000000000E+00   9.98097999525620E-07
      3.04621942199142E-16   9.98097999830241E-07  -1.80812786865561E-29   0.00000000000000E+00   9.98097999830238E-11
      0.00000000000000E+00   0.00000000000000E+00  -9.98097546117774E-07  -4.53712454880629E-13  -9.98097999830229E-07
     -1.93428251352739E-27
      3.00000000000000E-01
      3.00000000000000E+00   2.99999999989767E+00   0.00000000000000E+00   0.00000000000000E+00   1.02325474384507E-06
      3.18224574806347E-16   1.02325474416329E-06   1.33636344733051E-29   0.00000000000000E+00   1.02325474416329E-10
      0.00000000000000E+00   0.00000000000000E+00  -1.02325463937745E-06  -1.04785851665225E-13  -1.02325474416330E-06
      3.87030692645659E-27
      3.10000000000000E-01
      3.10000000000000E+00   3.09999999989487E+00   0.00000000000000E+00   0.00000000000000E+00   1.05124069917886E-06
      3.24315928265337E-16   1.05124069950318E-06   2.76163634329537E-29   0.00000000000000E+00   1.05124069950318E-10
      0.00000000000000E+00   0.00000000000000E+00  -1.05124073309317E-06   3.35899896757466E-14  -1.05124069950318E-06
     -5.94665101342094E-28
      3.20000000000000E-01
      3.20000000000000E+00   3.19999999989175E+00   0.00000000000000E+00   0.00000000000000E+00   1.08246127974960E-06
      3.40641069793364E-16   1.08246128009024E-06  -1.72708116037668E-29   0.00000000000000E+00   1.08246128009025E-10
      0.00000000000000E+00   0.00000000000000E+00  -1.08246132483468E-06   4.47444347145758E-14  -1.08246128009025E-06
     -1.05036533929489E-27
      3.30000000000000E-01
      3.30000000000000E+00   3.29999999988827E+00   0.00000000000000E+00   0.00000000000000E+00   1.11739683545895E-06
      3.70429349273081E-16   1.11739683582938E-06   7.54218247938966E-30   0.00000000000000E+00   1.11739683582938E-10
      0.00000000000000E+00   0.00000000000000E+00  -1.11739686199597E-06   2.61665838748562E-14  -1.11739683582938E-06
      4.13565626866652E-27
      3.40000000000000E-01
      3.40000000000000E+00   3.39999999988432E+00   0.00000000000000E+00   0.00000000000000E+00   1.15658186800987E-06
      4.06248096458495E-16   1.15658186841612E-06   3.12181033419164E-29   0.00000000000000E+00   1.15658186841612E-10
      0.00000000000000E+00   0.00000000000000E+00  -1.15658187698877E-06   8.57264756605540E-15  -1.15658186841612E-06
      9.34141940318184E-28
      3.50000000000000E-01
      3.50000000000000E+00   3.49999999987994E+00   0.00000000000000E+00   0.00000000000000E+00   1.20062912633773E-06
      4.39265981532456E-16   1.20062912677699E-06  -7.71455794102768E-30   0.00000000000000E+00   1.20062912677699E-10
      0.00000000000000E+00   0.00000000000000E+00  -1.20062911946356E-06  -7.31344800250903E-15  -1.20062912677700E-06
      4.23823478899567E-27
      3.60000000000000E-01
      3.60000000000000E+00   3.59999999987497E+00   0.00000000000000E+00   0.00000000000000E+00   1.25027217789975E-06
      4.69687606305201E-16   1.25027217836944E-06  -1.39110021672785E-30   0.00000000000000E+00   1.25027217836944E-10
      0.00000000000000E+00   0.00000000000000E+00  -1.25027215566238E-06  -2.27070563894490E-14  -1.25027217836944E-06
     -3.40628428025067E-27
      3.70000000000000E-01
      3.70000000000000E+00   3.69999999986935E+00   0.00000000000000E+00   0.00000000000000E+00   1.30639390270961E-06
      5.00655728195584E-16   1.30639390321026E-06   3.18743397485032E-29   0.00000000000000E+00   1.30639390321026E-10
      0.00000000000000E+00   0.00000000000000E+00  -1.30639386623071E-06  -3.69795598438887E-14  -1.30639390321027E-06
     -1.15333094838000E-27
      3.80000000000000E-01
      3.80000000000000E+00   3.79999999986300E+00   0.00000000000000E+00   0.00000000000000E+00   1.37004926052175E-06
      5.27463875739980E-16   1.37004926104921E-06  -1.67234439097934E-29   0.00000000000000E+00   1.37004926104921E-10
      0.00000000000000E+00   0.00000000000000E+00  -1.37004921527017E-06  -4.57790336724556E-14  -1.37004926104920E-06
     -2.10721441525209E-27
      3.90000000000000E-01
      3.90000000000000E+00   3.89999999985575E+00   0.00000000000000E+00   0.00000000000000E+00   1.44250082974920E-06
      5.43286354031416E-16   1.44250083029249E-06   3.96161148676843E-30   0.00000000000000E+00   1.44250083029249E-10
      0.00000000000000E+00   0.00000000000000E+00  -1.44250078576964E-06  -4.45228368478283E-14  -1.44250083029248E-06
     -2.52449609417595E-27
      4.00000000000000E-01
      4.00000000000000E+00   3.99999999984745E+00   0.00000000000000E+00   0.00000000000000E+00   1.52527455975075E-06
      5.49182850802983E-16   1.52527456029994E-06  -2.19249490679932E-29   0.00000000000000E+00   1.52527456029994E-10
      0.00000000000000E+00   0.00000000000000E+00  -1.52527452875701E-06  -3.15429388177870E-14  -1.52527456029995E-06
     -2.74416896318271E-27
      4.10000000000000E-01
      4.10000000000000E+00   4.09999999983795E+00   0.00000000000000E+00   0.00000000000000E+00   1.62023300020294E-06
      5.51468864223984E-16   1.62023300075441E-06   1.37870128001353E-29   0.00000000000000E+00   1.62023300075441E-10
      0.00000000000000E+00   0.00000000000000E+00  -1.62023298752274E-06  -1.32316644697630E-14  -1.62023300075441E-06
      3.12612879312531E-27
      4.20000000000000E-01
      4.20000000000000E+00   4.19999999982706E+00   0.00000000000000E+00   0.00000000000000E+00   1.72966052511431E-06
      5.56069413574239E-16   1.72966052567038E-06  -2.04915110185823E-29   0.00000000000000E+00   1.72966052567038E-10
      0.00000000000000E+00   0.00000000000000E+00  -1.72966053140380E-06   5.73342990282921E-15  -1.72966052567037E-06
     -7.06824068381230E-27
      4.30000000000000E-01
      4.30000000000000E+00   4.29999999981437E+00   0.00000000000000E+00   0.00000000000000E+00   1.85636390495636E-06
      5.65374498999708E-16   1.85636390552173E-06  -1.84713915734210E-29   0.00000000000000E+00   1.85636390552174E-10
      0.00000000000000E+00   0.00000000000000E+00  -1.85636391953965E-06   1.40179051122707E-14  -1.85636390552174E-06
      5.43424227272015E-27
      4.40000000000000E-01
      4.40000000000000E+00   4.39999999979964E+00   0.00000000000000E+00   0.00000000000000E+00   2.00380159770614E-06
      5.77042617529215E-16   2.00380159828319E-06   4.70161631944952E-29   0.00000000000000E+00   2.00380159828319E-10
      0.00000000000000E+00   0.00000000000000E+00  -2.00380159495177E-06  -3.33142632639193E-15  -2.00380159828319E-06
      5.34163128785695E-27
      4.50000000000000E-01
      4.50000000000000E+00   4.49999999978240E+00   0.00000000000000E+00   0.00000000000000E+00   2.17625195308844E-06
      5.85559270944648E-16   2.17625195367400E-06   1.72677874728609E-29   0.00000000000000E+00   2.17625195367399E-10
      0.00000000000000E+00   0.00000000000000E+00  -2.17625192692420E-06  -2.67498072281838E-14  -2.17625195367400E-06
      7.39039530095922E-27
      4.60000000000000E-01
      4.60000000000000E+00   4.59999999976208E+00   0.00000000000000E+00   0.00000000000000E+00   2.37903284229191E-06
      5.84270331425037E-16   2.37903284287618E-06  -1.42134152578715E-31   0.00000000000000E+00   2.37903284287617E-10
      0.00000000000000E+00   0.00000000000000E+00  -2.37903278567687E-06  -5.71992886819027E-14  -2.37903284287616E-06
      3.80063095038396E-27
      4.70000000000000E-01
      4.70000000000000E+00   4.69999999973811E+00   0.00000000000000E+00   0.00000000000000E+00   2.61877547479700E-06
      5.68656488949443E-16   2.61877547536566E-06  -3.61383643258647E-29   0.00000000000000E+00   2.61877547536566E-10
      0.00000000000000E+00   0.00000000000000E+00  -2.61877538449151E-06  -9.08741436268943E-14  -2.61877547536566E-06
     -6.73340890990772E-28
      4.80000000000000E-01
      4.80000000000000E+00   4.79999999970960E+00   0.00000000000000E+00   0.00000000000000E+00   2.90378276881238E-06
      5.48143628367847E-16   2.90378276936053E-06   2.37485000042691E-29   0.00000000000000E+00   2.90378276936052E-10
      0.00000000000000E+00   0.00000000000000E+00  -2.90378266773602E-06  -1.01624503284606E-13  -2.90378276936053E-06
     -4.65454874602963E-27
      4.90000000000000E-01
      4.90000000000000E+00   4.89999999967556E+00   0.00000000000000E+00   0.00000000000000E+00   3.24453931594435E-06
      5.42800543052719E-16   3.24453931648715E-06   3.34559602123047E-29   0.00000000000000E+00   3.24453931648714E-10
      0.00000000000000E+00   0.00000000000000E+00  -3.24453925419820E-06  -6.22889396291134E-14  -3.24453931648714E-06
     -9.15851996599118E-28
      5.00000000000000E-01
      5.00000000000000E+00   4.99999999963455E+00   0.00000000000000E+00   0.00000000000000E+00   3.65446314347627E-06
      5.57550320267301E-16   3.65446314403382E-06   2.41023233202629E-30   0.00000000000000E+00   3.65446314403383E-10
      0.00000000000000E+00   0.00000000000000E+00  -3.65446313960830E-06  -4.42553107747864E-15  -3.65446314403383E-06
      3.13416088481146E-27
      5.10000000000000E-01
      5.10000000000000E+00   5.09999999958493E+00   0.00000000000000E+00   0.00000000000000E+00   4.15099704716307E-06
      5.74598806429812E-16   4.15099704773767E-06  -4.22773500649028E-30   0.00000000000000E+00   4.15099704773767E-10
      0.00000000000000E+00   0.00000000000000E+00  -4.15099708172791E-06   3.39902450745459E-14  -4.15099704773766E-06
     -2.69858926216853E-27
      5.20000000000000E-01
      5.20000000000000E+00   5.19999999952428E+00   0.00000000000000E+00   0.00000000000000E+00   4.75717602681549E-06
      5.74226152825382E-16   4.75717602738971E-06  -1.56226602600349E-29   0.00000000000000E+00   4.75717602738972E-10
      0.00000000000000E+00   0.00000000000000E+00  -4.75717607719311E-06   4.98034486556909E-14  -4.75717602738966E-06
      6.40477055609848E-27
      5.30000000000000E-01
      5.30000000000000E+00   5.29999999944965E+00   0.00000000000000E+00   0.00000000000000E+00   5.50391895069977E-06
      5.47394483594969E-16   5.50391895124717E-06   3.01294162157816E-29   0.00000000000000E+00   5.50391895124718E-10
      0.00000000000000E+00   0.00000000000000E+00  -5.50391900656367E-06   5.53165577605499E-14  -5.50391895124711E-06
      7.09727234050923E-28
      5.40000000000000E-01
      5.40000000000000E+00   5.39999999935667E+00   0.00000000000000E+00   0.00000000000000E+00   6.43350499505950E-06
      4.84769906875878E-16   6.43350499554428E-06   4.71764421325095E-30   0.00000000000000E+00   6.43350499554431E-10
      0.00000000000000E+00   0.00000000000000E+00  -6.43350505186234E-06   5.63179879062724E-14  -6.43350499554435E-06
      2.77678119087226E-27
      5.50000000000000E-01
      5.50000000000000E+00   5.49999999923945E+00   0.00000000000000E+00   0.00000000000000E+00   7.60507066802112E-06
      3.61037028662045E-16   7.60507066838215E-06  -2.31255290376475E-29   0.00000000000000E+00   7.60507066838217E-10
      0.00000000000000E+00   0.00000000000000E+00  -7.60507072061357E-06   5.22314323682607E-14  -7.60507066838214E-06
     -4.53222869914657E-27
      5.60000000000000E-01
      5.60000000000000E+00   5.59999999908962E+00   0.00000000000000E+00   0.00000000000000E+00   9.10366129600117E-06
      1.20901104837436E-16   9.10366129612207E-06   2.46617875378599E-29   0.00000000000000E+00   9.10366129612209E-10
      0.00000000000000E+00   0.00000000000000E+00  -9.10366133133937E-06   3.52173674423790E-14  -9.10366129612200E-06
      6.87208345673005E-27
      5.70000000000000E-01
      5.70000000000000E+00   5.69999999889443E+00   0.00000000000000E+00   0.00000000000000E+00   1.10557815493891E-05
      1.54162496471496E-19   1.10557815493893E-05   6.01197224098903E-29   0.00000000000000E+00   1.10557815493892E-09
      0.00000000000000E+00   0.00000000000000E+00  -1.10557815495112E-05   1.21889657291831E-16  -1.10557815493893E-05
     -3.04000154492442E-27
      5.80000000000000E-01
      5.80000000000000E+00   5.79999999863423E+00   0.00000000000000E+00   0.00000000000000E+00   1.36574894649529E-05
      1.13221855711936E-18   1.36574894649540E-05  -2.14350398612325E-29   0.00000000000000E+00   1.36574894649542E-09
      0.00000000000000E+00   0.00000000000000E+00  -1.36574894647121E-05  -2.42097132153695E-16  -1.36574894649542E-05
     -8.50337224653049E-27
      5.90000000000000E-01
      5.90000000000000E+00   5.89999999827714E+00   0.00000000000000E+00   0.00000000000000E+00   1.72283917765852E-05
      4.59011431918961E-18   1.72283917765898E-05   5.76701763760870E-30   0.00000000000000E+00   1.72283917765898E-09
      0.00000000000000E+00   0.00000000000000E+00  -1.72283917770357E-05   4.45806097492012E-16  -1.72283917765899E-05
      4.75925625451655E-28
      6.00000000000000E-01
      6.00000000000000E+00   5.99999999776764E+00   0.00000000000000E+00   0.00000000000000E+00   2.23234508550209E-05
      1.88238628436894E-17   2.23234508550397E-05  -9.81935305155503E-30   0.00000000000000E+00   2.23234508550397E-09
      0.00000000000000E+00   0.00000000000000E+00  -2.23234508583961E-05   3.35650801519295E-15  -2.23234508550396E-05
     -9.70818599945304E-28
      6.10000000000000E-01
      6.10000000000000E+00   6.09999999700141E+00   0.00000000000000E+00   0.00000000000000E+00   2.99857790388767E-05
      9.10151742451985E-17   2.99857790389677E-05  -1.45188524793704E-29   0.00000000000000E+00   2.99857790389677E-09
      0.00000000000000E+00   0.00000000000000E+00  -2.99857790601178E-05   2.11501376425097E-14  -2.99857790389677E-05
     -2.39327300590583E-27
      6.20000000000000E-01
      6.20000000000000E+00   6.19999999576215E+00   0.00000000000000E+00   0.00000000000000E+00   4.23782950502669E-05
      5.80708985743333E-16   4.23782950508476E-05   1.57557220198958E-29   0.00000000000000E+00   4.23782950508477E-09
      0.00000000000000E+00   0.00000000000000E+00  -4.23782952266327E-05   1.75785143754168E-13  -4.23782950508476E-05
     -2.58778510577526E-27
      6.30000000000000E-01
      6.30000000000000E+00   6.29999999354720E+00   0.00000000000000E+00   0.00000000000000E+00   6.45280714587861E-05
      5.29072696121236E-15   6.45280714640768E-05   3.13118514000002E-29   0.00000000000000E+00   6.45280714640769E-09
      0.00000000000000E+00   0.00000000000000E+00  -6.45280735541678E-05   2.09009124915690E-12  -6.45280714640765E-05
      3.14161234336367E-27
      6.40000000000000E-01
      6.40000000000000E+00   6.39999998903372E+00   0.00000000000000E+00   0.00000000000000E+00   1.09662789671233E-04
     -5.14056711421837E-16   1.09662789670719E-04   5.45190319721078E-29   0.00000000000000E+00   1.09662789670719E-08
      0.00000000000000E+00   0.00000000000000E+00  -1.09662789354245E-04  -3.16472037605672E-13  -1.09662789670718E-04
      1.12275093665923E-27
      6.45000000000000E-01
      6.45000000000000E+00   6.44999998453648E+00   0.00000000000000E+00   0.00000000000000E+00   1.54635291262329E-04
      1.38423257217220E-15   1.54635291263713E-04   1.37597956219819E-29   0.00000000000000E+00   1.54635291263713E-08
      0.00000000000000E+00   0.00000000000000E+00  -1.54635292407058E-04   1.14334559879750E-12  -1.54635291263713E-04
     -1.86421944869880E-27
      6.46083333333334E-01
      6.46083333333334E+00   6.46083331611178E+00   0.00000000000000E+00   0.00000000000000E+00   1.72215932271422E-04
      1.10761788159945E-15   1.72215932272530E-04  -2.82907446249761E-29   0.00000000000000E+00   1.72215932272530E-08
      0.00000000000000E+00   0.00000000000000E+00  -1.72215933249459E-04   9.76926980718370E-13  -1.72215932272532E-04
     -5.16637685359648E-27
      6.48033333333334E-01
      6.48033333333334E+00   6.48033331043597E+00   0.00000000000000E+00   0.00000000000000E+00   2.28974011297175E-04
      6.13309661290855E-15   2.28974011303308E-04   1.34029481750822E-29   0.00000000000000E+00   2.28974011303308E-08
      0.00000000000000E+00   0.00000000000000E+00  -2.28974017514711E-04   6.21140221509305E-12  -2.28974011303309E-04
     -6.51034901428632E-27
      6.51283333333334E-01
      6.51283333333334E+00   6.51283329740297E+00   0.00000000000000E+00   0.00000000000000E+00   3.59303998862641E-04
      2.86141533869002E-15   3.59303998865502E-04  -1.85439707151634E-29   0.00000000000000E+00   3.59303998865502E-08
      0.00000000000000E+00   0.00000000000000E+00  -3.59304002714965E-04   3.84946316315785E-12  -3.59303998865501E-04
     -2.91110098919005E-27
      6.57133333333334E-01
      6.57133333333334E+00   6.57133327280235E+00   0.00000000000000E+00   0.00000000000000E+00   6.05309909978630E-04
      4.38644716478904E-15   6.05309909983017E-04  -1.56317326527527E-29   0.00000000000000E+00   6.05309909983015E-08
      0.00000000000000E+00   0.00000000000000E+00  -6.05309918336438E-04   8.35342111811498E-12  -6.05309909983017E-04
     -4.12684999946845E-27
      6.67133333333334E-01
      6.67133333333334E+00   6.67133323042054E+00   0.00000000000000E+00   0.00000000000000E+00   1.02912827827376E-03
      1.08077654393269E-15   1.02912827827484E-03  -5.44645976158011E-30   0.00000000000000E+00   1.02912827827484E-07
      0.00000000000000E+00   0.00000000000000E+00  -1.02912828145913E-03   3.18428609266145E-12  -1.02912827827484E-03
     -5.90842599876999E-27
      6.77133333333334E-01
      6.77133333333334E+00   6.77133318794488E+00   0.00000000000000E+00   0.00000000000000E+00   1.45388468959274E-03
     -6.69400679041019E-15   1.45388468958605E-03   4.06261745902649E-29   0.00000000000000E+00   1.45388468958605E-07
      0.00000000000000E+00   0.00000000000000E+00  -1.45388465721378E-03  -3.23722676512543E-11  -1.45388468958605E-03
     -5.95013481222458E-27
      6.87133333333334E-01