DF-ISE text

Info {
  version   = 1.0
  type      = xyplot
  datasets  = [
    "time"
    "ntype OuterVoltage" "ntype InnerVoltage" "ntype QuasiFermiPotential" "ntype DisplacementCurrent" "ntype eCurrent"
    "ntype hCurrent" "ntype TotalCurrent" "ntype Charge" "ptype OuterVoltage" "ptype InnerVoltage"
    "ptype QuasiFermiPotential" "ptype DisplacementCurrent" "ptype eCurrent" "ptype hCurrent" "ptype TotalCurrent"
    "ptype Charge" ]
  functions = [
    Time
    OuterVoltage InnerVoltage QuasiFermiPotential DisplacementCurrent eCurrent
    hCurrent TotalCurrent Charge OuterVoltage InnerVoltage
    QuasiFermiPotential DisplacementCurrent eCurrent hCurrent TotalCurrent
    Charge ]
}

Data {
      1.00000000000000E-02
      1.00000000000000E-01   9.99999999109842E-02   0.00000000000000E+00   0.00000000000000E+00   8.90159845108275E-07
     -7.20757006000903E-20   8.90159845108203E-07   3.98296778267220E-14   0.00000000000000E+00   8.90159845108181E-11
      0.00000000000000E+00   0.00000000000000E+00  -8.90159845170729E-07   6.24791093389049E-17  -8.90159845108250E-07
     -4.14393136966427E-14
      2.00000000000000E-02
      2.00000000000000E-01   1.99999999910407E-01   0.00000000000000E+00   0.00000000000000E+00   8.95922755421091E-07
      9.15451544732578E-21   8.95922755421100E-07   4.37332436755268E-14   0.00000000000000E+00   8.95922755421089E-11
      0.00000000000000E+00   0.00000000000000E+00  -8.95922755408040E-07  -1.30522156723440E-17  -8.95922755421092E-07
     -4.53428795273368E-14
      3.00000000000000E-02
      3.00000000000000E-01   2.99999999909997E-01   0.00000000000000E+00   0.00000000000000E+00   9.00006809312257E-07
      1.99207969816235E-20   9.00006809312277E-07   4.75947778520211E-14   0.00000000000000E+00   9.00006809312248E-11
      0.00000000000000E+00   0.00000000000000E+00  -9.00006809286393E-07  -2.58969536480900E-17  -9.00006809312289E-07
     -4.92044136924132E-14
      4.00000000000000E-02
      4.00000000000000E-01   3.99999999909698E-01   0.00000000000000E+00   0.00000000000000E+00   9.03033140609924E-07
     -3.90921456847430E-20   9.03033140609885E-07   5.14230393974006E-14   0.00000000000000E+00   9.03033140609920E-11
      0.00000000000000E+00   0.00000000000000E+00  -9.03033140608792E-07  -1.10944023299864E-18  -9.03033140609902E-07
     -5.30326752307182E-14
      5.00000000000000E-02
      5.00000000000000E-01   4.99999999909467E-01   0.00000000000000E+00   0.00000000000000E+00   9.05357754272406E-07
      2.68800945791319E-21   9.05357754272409E-07   5.52230259906445E-14   0.00000000000000E+00   9.05357754272406E-11
      0.00000000000000E+00   0.00000000000000E+00  -9.05357754281179E-07   8.80043290376984E-18  -9.05357754272379E-07
     -5.68326618198694E-14
      6.00000000000000E-02
      6.00000000000000E-01   5.99999999909282E-01   0.00000000000000E+00   0.00000000000000E+00   9.07201075171560E-07
      5.57462068445895E-21   9.07201075171565E-07   5.89981770145775E-14   0.00000000000000E+00   9.07201075171561E-11
      0.00000000000000E+00   0.00000000000000E+00  -9.07201075175456E-07   3.87318868016112E-18  -9.07201075171583E-07
     -6.06078128418612E-14
      7.00000000000000E-02
      7.00000000000000E-01   6.99999999909127E-01   0.00000000000000E+00   0.00000000000000E+00   9.08704483094544E-07
      1.28031985182268E-20   9.08704483094557E-07   6.27510821871681E-14   0.00000000000000E+00   9.08704483094545E-11
      0.00000000000000E+00   0.00000000000000E+00  -9.08704483106817E-07   1.22552472442078E-17  -9.08704483094562E-07
     -6.43607180141150E-14
      8.00000000000000E-02
      8.00000000000000E-01   7.99999999909004E-01   0.00000000000000E+00   0.00000000000000E+00   9.09961619773129E-07
      9.03874317227314E-21   9.09961619773138E-07   6.64837827258358E-14   0.00000000000000E+00   9.09961619773131E-11
      0.00000000000000E+00   0.00000000000000E+00  -9.09961619776450E-07   3.28649207562635E-18  -9.09961619773164E-07
     -6.80934185537149E-14
      9.00000000000000E-02
      9.00000000000000E-01   8.99999999908896E-01   0.00000000000000E+00   0.00000000000000E+00   9.11036617246733E-07
     -9.84746145514815E-21   9.11036617246723E-07   7.01979329854904E-14   0.00000000000000E+00   9.11036617246735E-11
      0.00000000000000E+00   0.00000000000000E+00  -9.11036617250225E-07   3.48136593178100E-18  -9.11036617246743E-07
     -7.18075688153336E-14
      1.00000000000000E-01
      1.00000000000000E+00   9.99999999908803E-01   0.00000000000000E+00   0.00000000000000E+00   9.11974202905730E-07
     -9.69476356233819E-21   9.11974202905721E-07   7.38949020522902E-14   0.00000000000000E+00   9.11974202905733E-11
      0.00000000000000E+00   0.00000000000000E+00  -9.11974202924926E-07   1.91724696592222E-17  -9.11974202905754E-07
     -7.55045378849870E-14
      1.10000000000000E-01
      1.10000000000000E+00   1.09999999990872E+00   0.00000000000000E+00   0.00000000000000E+00   9.12807117128461E-07
      2.18183822012910E-20   9.12807117128483E-07   7.75758429596797E-14   0.00000000000000E+00   9.12807117128461E-11
      0.00000000000000E+00   0.00000000000000E+00  -9.12807117123674E-07  -4.82588863825838E-18  -9.12807117128500E-07
     -7.91854787960182E-14
      1.20000000000000E-01
      1.20000000000000E+00   1.19999999990864E+00   0.00000000000000E+00   0.00000000000000E+00   9.13559369628848E-07
      6.21462822975427E-17   9.13559369690994E-07   8.12417417107546E-14   0.00000000000000E+00   9.13559369696627E-11
      0.00000000000000E+00   0.00000000000000E+00  -9.13559369802476E-07   1.11509333894544E-16  -9.13559369690967E-07
     -8.28513775514658E-14
      1.30000000000000E-01
      1.30000000000000E+00   1.29999999990858E+00   0.00000000000000E+00   0.00000000000000E+00   9.14248552079760E-07
      5.79737450058223E-17   9.14248552137733E-07   8.48934526994500E-14   0.00000000000000E+00   9.14248552140406E-11
      0.00000000000000E+00   0.00000000000000E+00  -9.14248552257329E-07   1.19632421292624E-16  -9.14248552137697E-07
     -8.65030885452233E-14
      1.40000000000000E-01
      1.40000000000000E+00   1.39999999990852E+00   0.00000000000000E+00   0.00000000000000E+00   9.14889918796548E-07
      5.31754678832290E-17   9.14889918849723E-07   8.85317246722691E-14   0.00000000000000E+00   9.14889918851014E-11
      0.00000000000000E+00   0.00000000000000E+00  -9.14889918993889E-07   1.44151839066985E-16  -9.14889918849737E-07
     -9.01413605237696E-14
      1.50000000000000E-01
      1.50000000000000E+00   1.49999999990845E+00   0.00000000000000E+00   0.00000000000000E+00   9.15495926524838E-07
      4.89595989528689E-17   9.15495926573797E-07   9.21572201683447E-14   0.00000000000000E+00   9.15495926574395E-11
      0.00000000000000E+00   0.00000000000000E+00  -9.15495926778476E-07   2.04689328241174E-16  -9.15495926573787E-07
     -9.37668560262371E-14
      1.60000000000000E-01
      1.60000000000000E+00   1.59999999990839E+00   0.00000000000000E+00   0.00000000000000E+00   9.16075063444447E-07
      4.55515329956010E-17   9.16075063489999E-07   9.57705303155334E-14   0.00000000000000E+00   9.16075063490274E-11
      0.00000000000000E+00   0.00000000000000E+00  -9.16075063720163E-07   2.30172823325134E-16  -9.16075063489990E-07
     -9.73801661804766E-14
      1.70000000000000E-01
      1.70000000000000E+00   1.69999999990833E+00   0.00000000000000E+00   0.00000000000000E+00   9.16635832654276E-07
      4.32206930222397E-17   9.16635832697497E-07   9.93721862285635E-14   0.00000000000000E+00   9.16635832697607E-11
      0.00000000000000E+00   0.00000000000000E+00  -9.16635832899194E-07   2.01677465519470E-16  -9.16635832697517E-07
     -1.00981822101236E-13
      1.80000000000000E-01
      1.80000000000000E+00   1.79999999990829E+00   0.00000000000000E+00   0.00000000000000E+00   9.17189401242178E-07
      4.16473267424960E-17   9.17189401283826E-07   1.02962668049059E-13   0.00000000000000E+00   9.17189401283899E-11
      0.00000000000000E+00   0.00000000000000E+00  -9.17189401474265E-07   1.90425521122376E-16  -9.17189401283839E-07
     -1.04572303930124E-13
      1.90000000000000E-01
      1.90000000000000E+00   1.89999999990823E+00   0.00000000000000E+00   0.00000000000000E+00   9.17746244239984E-07
      4.05951130379624E-17   9.17746244280579E-07   1.06542412315306E-13   0.00000000000000E+00   9.17746244280670E-11
      0.00000000000000E+00   0.00000000000000E+00  -9.17746244179384E-07  -1.01185282509791E-16  -9.17746244280569E-07
     -1.08152048205444E-13
      2.00000000000000E-01
      2.00000000000000E+00   1.99999999990817E+00   0.00000000000000E+00   0.00000000000000E+00   9.18313365434388E-07
      3.99448070728860E-17   9.18313365474333E-07   1.10111817932161E-13   0.00000000000000E+00   9.18313365474402E-11
      0.00000000000000E+00   0.00000000000000E+00  -9.18313365479393E-07   5.06995739881634E-18  -9.18313365474323E-07
     -1.11721453832057E-13
      2.10000000000000E-01
      2.10000000000000E+00   2.09999999990811E+00   0.00000000000000E+00   0.00000000000000E+00   9.18897793041425E-07
      3.94709379199783E-17   9.18897793080896E-07   1.13671250912597E-13   0.00000000000000E+00   9.18897793080973E-11
      0.00000000000000E+00   0.00000000000000E+00  -9.18897793026026E-07  -5.48977885124935E-17  -9.18897793080924E-07
     -1.15280886822968E-13
      2.20000000000000E-01
      2.20000000000000E+00   2.19999999990804E+00   0.00000000000000E+00   0.00000000000000E+00   9.19511875900392E-07
      3.91276753521354E-17   9.19511875939519E-07   1.17221048202307E-13   0.00000000000000E+00   9.19511875939583E-11
      0.00000000000000E+00   0.00000000000000E+00  -9.19511876206363E-07   2.66818436813055E-16  -9.19511875939545E-07
     -1.18830684123867E-13
      2.30000000000000E-01
      2.30000000000000E+00   2.29999999990799E+00   0.00000000000000E+00   0.00000000000000E+00   9.20173101419631E-07
      3.88398946388168E-17   9.20173101458471E-07   1.20761520938797E-13   0.00000000000000E+00   9.20173101458542E-11
      0.00000000000000E+00   0.00000000000000E+00  -9.20173101697615E-07   2.39145081945126E-16  -9.20173101458470E-07
     -1.22371156872227E-13
      2.40000000000000E-01
      2.40000000000000E+00   2.39999999990792E+00   0.00000000000000E+00   0.00000000000000E+00   9.20899062503395E-07
      3.86134344154988E-17   9.20899062542008E-07   1.24292957343266E-13   0.00000000000000E+00   9.20899062542105E-11
      0.00000000000000E+00   0.00000000000000E+00  -9.20899062664100E-07   1.22092372399585E-16  -9.20899062542008E-07
     -1.25902593289231E-13
      2.50000000000000E-01
      2.50000000000000E+00   2.49999999990782E+00   0.00000000000000E+00   0.00000000000000E+00   9.21703645774710E-07
      3.84952115485342E-17   9.21703645813205E-07   1.27815625313041E-13   0.00000000000000E+00   9.21703645813274E-11
      0.00000000000000E+00   0.00000000000000E+00  -9.21703645898055E-07   8.48235981473217E-17  -9.21703645813231E-07
     -1.29425261272179E-13
      2.60000000000000E-01
      2.60000000000000E+00   2.59999999990773E+00   0.00000000000000E+00   0.00000000000000E+00   9.22598941564763E-07
      3.83952185957842E-17   9.22598941603159E-07   1.31329774749744E-13   0.00000000000000E+00   9.22598941603239E-11
      0.00000000000000E+00   0.00000000000000E+00  -9.22598941462844E-07  -1.40361577973473E-16  -9.22598941603206E-07
     -1.32939410722711E-13
      2.70000000000000E-01
      2.70000000000000E+00   2.69999999990763E+00   0.00000000000000E+00   0.00000000000000E+00   9.23601542614930E-07
      3.83093807106954E-17   9.23601542653239E-07   1.34835639687017E-13   0.00000000000000E+00   9.23601542653324E-11
      0.00000000000000E+00   0.00000000000000E+00  -9.23601542325684E-07  -3.27585154400619E-16  -9.23601542653270E-07
     -1.36445275674425E-13
      2.80000000000000E-01
      2.80000000000000E+00   2.79999999990754E+00   0.00000000000000E+00   0.00000000000000E+00   9.24736778876670E-07
      3.82496803574885E-17   9.24736778914920E-07   1.38333440305534E-13   0.00000000000000E+00   9.24736778914975E-11
      0.00000000000000E+00   0.00000000000000E+00  -9.24736779104132E-07   1.89230161014801E-16  -9.24736778914902E-07
     -1.39943076307933E-13
      2.90000000000000E-01
      2.90000000000000E+00   2.89999999990737E+00   0.00000000000000E+00   0.00000000000000E+00   9.26037253136276E-07
      3.81539151517018E-17   9.26037253174430E-07   1.41823384835516E-13   0.00000000000000E+00   9.26037253174473E-11
      0.00000000000000E+00   0.00000000000000E+00  -9.26037253080846E-07  -9.35887519308359E-17  -9.26037253174435E-07
     -1.43433020853357E-13
      3.00000000000000E-01
      3.00000000000000E+00   2.99999999990725E+00   0.00000000000000E+00   0.00000000000000E+00   9.27538066886930E-07
      3.80035387799059E-17   9.27538066924934E-07   1.45305671244023E-13   0.00000000000000E+00   9.27538066925013E-11
      0.00000000000000E+00   0.00000000000000E+00  -9.27538067133307E-07   2.08378877841822E-16  -9.27538066924928E-07
     -1.46915307277624E-13
      3.10000000000000E-01
      3.10000000000000E+00   3.09999999990708E+00   0.00000000000000E+00   0.00000000000000E+00   9.29272354569321E-07
      3.79108482562251E-17   9.29272354607231E-07   1.48780488622267E-13   0.00000000000000E+00   9.29272354607313E-11
      0.00000000000000E+00   0.00000000000000E+00  -9.29272354694319E-07   8.70599902569161E-17  -9.29272354607259E-07
     -1.50390124671834E-13
      3.20000000000000E-01
      3.20000000000000E+00   3.19999999990688E+00   0.00000000000000E+00   0.00000000000000E+00   9.31269935191389E-07
      3.78535513759518E-17   9.31269935229243E-07   1.52248018258196E-13   0.00000000000000E+00   9.31269935229335E-11
      0.00000000000000E+00   0.00000000000000E+00  -9.31269935368424E-07   1.39199163053574E-16  -9.31269935229224E-07
     -1.53857654323810E-13
      3.30000000000000E-01
      3.30000000000000E+00   3.29999999990666E+00   0.00000000000000E+00   0.00000000000000E+00   9.33561059632608E-07
      3.78928417858767E-17   9.33561059670501E-07   1.55708434442960E-13   0.00000000000000E+00   9.33561059670558E-11
      0.00000000000000E+00   0.00000000000000E+00  -9.33561059961931E-07   2.91424014514929E-16  -9.33561059670507E-07
     -1.57318070524584E-13
      3.40000000000000E-01
      3.40000000000000E+00   3.39999999990638E+00   0.00000000000000E+00   0.00000000000000E+00   9.36183431835671E-07
      3.78972630716811E-17   9.36183431873568E-07   1.59161905150200E-13   0.00000000000000E+00   9.36183431873617E-11
      0.00000000000000E+00   0.00000000000000E+00  -9.36183431545280E-07  -3.28285542167769E-16  -9.36183431873566E-07
     -1.60771541247618E-13
      3.50000000000000E-01
      3.50000000000000E+00   3.49999999990609E+00   0.00000000000000E+00   0.00000000000000E+00   9.39187102995419E-07
      3.78059918553374E-17   9.39187103033225E-07   1.62608592777870E-13   0.00000000000000E+00   9.39187103033285E-11
      0.00000000000000E+00   0.00000000000000E+00  -9.39187102430345E-07  -6.02910279302906E-16  -9.39187103033255E-07
     -1.64218228890629E-13
      3.60000000000000E-01
      3.60000000000000E+00   3.59999999990575E+00   0.00000000000000E+00   0.00000000000000E+00   9.42634659196462E-07
      3.76511497114809E-17   9.42634659234113E-07   1.66048655047699E-13   0.00000000000000E+00   9.42634659234151E-11
      0.00000000000000E+00   0.00000000000000E+00  -9.42634658262039E-07  -9.72106060128031E-16  -9.42634659234145E-07
     -1.67658291175019E-13
      3.70000000000000E-01
      3.70000000000000E+00   3.69999999990534E+00   0.00000000000000E+00   0.00000000000000E+00   9.46598910351401E-07
      3.73208600514853E-17   9.46598910388722E-07   1.69482246009973E-13   0.00000000000000E+00   9.46598910388783E-11
      0.00000000000000E+00   0.00000000000000E+00  -9.46598909374647E-07  -1.01410887054359E-15  -9.46598910388756E-07
     -1.71091882150692E-13
      3.80000000000000E-01
      3.80000000000000E+00   3.79999999990487E+00   0.00000000000000E+00   0.00000000000000E+00   9.51160652780452E-07
      3.69227769149526E-17   9.51160652817375E-07   1.72909517031934E-13   0.00000000000000E+00   9.51160652817422E-11
      0.00000000000000E+00   0.00000000000000E+00  -9.51160652375396E-07  -4.42027136646755E-16  -9.51160652817423E-07
     -1.74519153184448E-13
      3.90000000000000E-01
      3.90000000000000E+00   3.89999999990435E+00   0.00000000000000E+00   0.00000000000000E+00   9.56407417589073E-07
      3.64114652531447E-17   9.56407417625484E-07   1.76330617630655E-13   0.00000000000000E+00   9.56407417625544E-11
      0.00000000000000E+00   0.00000000000000E+00  -9.56407417827264E-07   2.01802934986048E-16  -9.56407417625461E-07
     -1.77940253792843E-13
      4.00000000000000E-01
      4.00000000000000E+00   3.99999999990374E+00   0.00000000000000E+00   0.00000000000000E+00   9.62434359837996E-07
      3.59549862435469E-17   9.62434359873951E-07   1.79745695989086E-13   0.00000000000000E+00   9.62434359873994E-11
      0.00000000000000E+00   0.00000000000000E+00  -9.62434360167046E-07   2.93094016337653E-16  -9.62434359873952E-07
     -1.81355332158246E-13
      4.10000000000000E-01
      4.10000000000000E+00   4.09999999990307E+00   0.00000000000000E+00   0.00000000000000E+00   9.69349796866835E-07
      3.55940775507807E-17   9.69349796902429E-07   1.83154898986260E-13   0.00000000000000E+00   9.69349796902482E-11
      0.00000000000000E+00   0.00000000000000E+00  -9.69349796940272E-07   3.78263653537425E-17  -9.69349796902446E-07
     -1.84764535159003E-13
      4.20000000000000E-01
      4.20000000000000E+00   4.19999999990230E+00   0.00000000000000E+00   0.00000000000000E+00   9.77286661375759E-07
      3.54004410288811E-17   9.77286661411160E-07   1.86558371641332E-13   0.00000000000000E+00   9.77286661411205E-11
      0.00000000000000E+00   0.00000000000000E+00  -9.77286661413788E-07   2.62673728769946E-18  -9.77286661411161E-07
     -1.88168007813406E-13
      4.30000000000000E-01
      4.30000000000000E+00   4.29999999990134E+00   0.00000000000000E+00   0.00000000000000E+00   9.86417323110044E-07
      3.53536269062032E-17   9.86417323145397E-07   1.89956256003863E-13   0.00000000000000E+00   9.86417323145431E-11
      0.00000000000000E+00   0.00000000000000E+00  -9.86417323162977E-07   1.75775884108724E-17  -9.86417323145400E-07
     -1.91565892169893E-13
      4.40000000000000E-01
      4.40000000000000E+00   4.39999999990029E+00   0.00000000000000E+00   0.00000000000000E+00   9.96968935718381E-07
      3.54303562472262E-17   9.96968935753811E-07   1.93348689597800E-13   0.00000000000000E+00   9.96968935753830E-11
      0.00000000000000E+00   0.00000000000000E+00  -9.96968935887349E-07   1.33533406295791E-16  -9.96968935753816E-07
     -1.94958325750927E-13
      4.50000000000000E-01
      4.50000000000000E+00   4.49999999989907E+00   0.00000000000000E+00   0.00000000000000E+00   1.00924155323873E-06
      3.56036918475490E-17   1.00924155327434E-06   1.96735803497190E-13   0.00000000000000E+00   1.00924155327437E-10
      0.00000000000000E+00   0.00000000000000E+00  -1.00924155309603E-06  -1.78291904772508E-16  -1.00924155327433E-06
     -1.98345439628547E-13
      4.60000000000000E-01
      4.60000000000000E+00   4.59999999989765E+00   0.00000000000000E+00   0.00000000000000E+00   1.02363630323868E-06
      3.59590601450205E-17   1.02363630327464E-06   2.00117720061489E-13   0.00000000000000E+00   1.02363630327467E-10
      0.00000000000000E+00   0.00000000000000E+00  -1.02363630262565E-06  -6.48982903540671E-16  -1.02363630327463E-06
     -2.01727356159484E-13
      4.70000000000000E-01
      4.70000000000000E+00   4.69999999989591E+00   0.00000000000000E+00   0.00000000000000E+00   1.04070424436726E-06
      3.65580585380216E-17   1.04070424440382E-06   2.03494550307837E-13   0.00000000000000E+00   1.04070424440384E-10
      0.00000000000000E+00   0.00000000000000E+00  -1.04070424322778E-06  -1.17602763434583E-15  -1.04070424440380E-06
     -2.05104186357001E-13
      4.80000000000000E-01
      4.80000000000000E+00   4.79999999989389E+00   0.00000000000000E+00   0.00000000000000E+00   1.06123356660783E-06
      3.75309242204279E-17   1.06123356664536E-06   2.06866390745988E-13   0.00000000000000E+00   1.06123356664540E-10
      0.00000000000000E+00   0.00000000000000E+00  -1.06123356487147E-06  -1.77389218419755E-15  -1.06123356664536E-06
     -2.08476026725106E-13
      4.90000000000000E-01
      4.90000000000000E+00   4.89999999989135E+00   0.00000000000000E+00   0.00000000000000E+00   1.08641290502066E-06
      3.91476878893629E-17   1.08641290505980E-06   2.10233319071846E-13   0.00000000000000E+00   1.08641290505985E-10
      0.00000000000000E+00   0.00000000000000E+00  -1.08641290310220E-06  -1.95762265121679E-15  -1.08641290505982E-06
     -2.11842954950624E-13
      5.00000000000000E-01
      5.00000000000000E+00   4.99999999988821E+00   0.00000000000000E+00   0.00000000000000E+00   1.11816249052864E-06
      4.17437100304696E-17   1.11816249057038E-06   2.13595386996171E-13   0.00000000000000E+00   1.11816249057041E-10
      0.00000000000000E+00   0.00000000000000E+00  -1.11816248940473E-06  -1.16563930924830E-15  -1.11816249057037E-06
     -2.15205022728782E-13
      5.10000000000000E-01
      5.10000000000000E+00   5.09999999988402E+00   0.00000000000000E+00   0.00000000000000E+00   1.15987990815731E-06
      4.58601846486250E-17   1.15987990820317E-06   2.16952605300441E-13   0.00000000000000E+00   1.15987990820319E-10
      0.00000000000000E+00   0.00000000000000E+00  -1.15987990815310E-06  -5.00463097248829E-17  -1.15987990820315E-06
     -2.18562240811635E-13
      5.20000000000000E-01
      5.20000000000000E+00   5.19999999987814E+00   0.00000000000000E+00   0.00000000000000E+00   1.21837473493758E-06
      7.29183067442343E-21   1.21837473493759E-06   2.20304905341036E-13   0.00000000000000E+00   1.21837473493758E-10
      0.00000000000000E+00   0.00000000000000E+00  -1.21837473491723E-06  -2.03471518192842E-17  -1.21837473493758E-06
     -2.21914540491140E-13
      5.30000000000000E-01
      5.30000000000000E+00   5.29999999986898E+00   0.00000000000000E+00   0.00000000000000E+00   1.31008387901443E-06
      9.85880241270433E-21   1.31008387901444E-06   2.23652013104630E-13   0.00000000000000E+00   1.31008387901444E-10
      0.00000000000000E+00   0.00000000000000E+00  -1.31008387900700E-06  -7.47036483665558E-18  -1.31008387901447E-06
     -2.25261647579439E-13
      5.40000000000000E-01
      5.40000000000000E+00   5.39999999985101E+00   0.00000000000000E+00   0.00000000000000E+00   1.48985934544918E-06
      3.09667546299405E-20   1.48985934544921E-06   2.26992854168223E-13   0.00000000000000E+00   1.48985934544918E-10
      0.00000000000000E+00   0.00000000000000E+00  -1.48985934547187E-06   2.26523610883344E-17  -1.48985934544922E-06
     -2.28602486961892E-13
      5.50000000000000E-01
      5.50000000000000E+00   5.49999999978428E+00   0.00000000000000E+00   0.00000000000000E+00   2.15747724941917E-06
     -2.22183939756653E-19   2.15747724941895E-06   2.30319135408953E-13   0.00000000000000E+00   2.15747724941898E-10
      0.00000000000000E+00   0.00000000000000E+00  -2.15747724949726E-06   7.83591667173002E-17  -2.15747724941891E-06
     -2.31928758229225E-13
      5.55000000000000E-01
      5.55000000000000E+00   5.54999999946103E+00   0.00000000000000E+00   0.00000000000000E+00   5.38993459532635E-06
     -1.72825089818646E-17   5.38993459530907E-06   2.31919795690450E-13   0.00000000000000E+00   5.38993459530873E-10
      0.00000000000000E+00   0.00000000000000E+00  -5.38993459520719E-06  -1.01905772690298E-16  -5.38993459530910E-06
     -2.33529293084727E-13
      5.64000000000000E-01
      5.64000000000000E+00   5.63999999406624E+00   0.00000000000000E+00   0.00000000000000E+00   5.93373756044462E-05
     -1.65452689741470E-19   5.93373756044460E-05   2.33786768563379E-13   0.00000000000000E+00   5.93373756044461E-09
      0.00000000000000E+00   0.00000000000000E+00  -5.93373756044297E-05  -1.58350726946928E-17  -5.93373756044455E-05
     -2.35375923141032E-13
      5.74000000000000E-01
      5.74000000000000E+00   5.73999998706491E+00   0.00000000000000E+00   0.00000000000000E+00   1.29350860146285E-04
      2.25764982116415E-19   1.29350860146286E-04   2.35646736006982E-13   0.00000000000000E+00   1.29350860146286E-08
      0.00000000000000E+00   0.00000000000000E+00  -1.29350860146217E-04  -7.14625304805178E-17  -1.29350860146288E-04
     -2.37155512254993E-13
      5.84000000000000E-01
      5.84000000000000E+00   5.83999997998612E+00   0.00000000000000E+00   0.00000000000000E+00   2.00138688273343E-04
     -1.07421549972109E-19   2.00138688273343E-04   2.37490064591777E-13   0.00000000000000E+00   2.00138688273342E-08
      0.00000000000000E+00   0.00000000000000E+00  -2.00138688273331E-04  -1.37046447881386E-17  -2.00138688273345E-04
     -2.38841468627821E-13
      5.94000000000000E-01
      5.94000000000000E+00   5.93999997274233E+00   0.00000000000000E+00   0.00000000000000E+00   2.72576852470225E-04
      7.65084758746015E-19   2.72576852470226E-04   2.39317801172999E-13   0.00000000000000E+00   2.72576852470225E-08
      0.00000000000000E+00   0.00000000000000E+00  -2.72576852470260E-04   2.89157895491412E-17  -2.72576852470231E-04
     -2.40467018046446E-13
      5.96500000000000E-01
      5.96500000000000E+00   5.96499997068710E+00   0.00000000000000E+00   0.00000000000000E+00   2.93128706061739E-04
      1.14315607901207E-16   2.93128706061853E-04   2.39764365890553E-13   0.00000000000000E+00   2.93128706061831E-08
      0.00000000000000E+00   0.00000000000000E+00  -2.93128706061851E-04  -3.91076574852537E-18  -2.93128706061855E-04
     -2.40867814896221E-13
      5.98833333333334E-01
      5.98833333333334E+00   5.98833330075338E+00   0.00000000000000E+00   0.00000000000000E+00   3.25799723838332E-04
      1.66759168051941E-18   3.25799723838333E-04   2.40130833133559E-13   0.00000000000000E+00   3.25799723838330E-08
      0.00000000000000E+00   0.00000000000000E+00  -3.25799723838428E-04   9.62322806987709E-17  -3.25799723838332E-04
     -2.41190543231244E-13
      6.02722222222222E-01
      6.02722222222222E+00   6.02722218045560E+00   0.00000000000000E+00   0.00000000000000E+00   4.17665923674949E-04
      3.16820299030998E-17   4.17665923674980E-04   2.40602145000471E-13   0.00000000000000E+00   4.17665923674971E-08
      0.00000000000000E+00   0.00000000000000E+00  -4.17665923674917E-04  -7.01802437913623E-17  -4.17665923674987E-04
     -2.41582227196471E-13
      6.09203703703704E-01
      6.09203703703704E+00   6.09203697892456E+00   0.00000000000000E+00   0.00000000000000E+00   5.81124359936002E-04
      2.57319543976948E-17   5.81124359936028E-04   2.41345879719386E-13   0.00000000000000E+00   5.81124359936022E-08
      0.00000000000000E+00   0.00000000000000E+00  -5.81124359936050E-04   1.44675819742808E-17  -5.81124359936035E-04
     -2.42206001969087E-13
      6.19203703703704E-01
      6.19203703703704E+00   6.19203695324752E+00   0.00000000000000E+00   0.00000000000000E+00   8.37895126936422E-04
     -7.37157920786728E-19   8.37895126936422E-04   2.42467817593396E-13   0.00000000000000E+00   8.37895126936422E-08
      0.00000000000000E+00   0.00000000000000E+00  -8.37895126936424E-04   1.16463968776995E-18  -8.37895126936423E-04
     -2.43180637099254E-13
      6.29203703703704E-01
      6.29203703703704E+00   6.29203692717049E+00   0.00000000000000E+00   0.00000000000000E+00   1.09866551260094E-03
     -3.62495886778470E-19   1.09866551260094E-03   2.43564763209465E-13   0.00000000000000E+00   1.09866551260094E-07
      0.00000000000000E+00   0.00000000000000E+00  -1.09866551260092E-03  -2.04137327766200E-17  -1.09866551260094E-03
     -2.44174891864908E-13
      6.39203703703704E-01
      6.39203703703704E+00   6.39203690072513E+00   0.00000000000000E+00   0.00000000000000E+00   1.36311921947354E-03
      9.79927858690234E-19   1.36311921947354E-03   2.44638282586965E-13   0.00000000000000E+00   1.36311921947354E-07
      0.00000000000000E+00   0.00000000000000E+00  -1.36311921947353E-03  -1.12945726075117E-17  -1.36311921947354E-03
     -2.45185075798365E-13
      6.49203703703704E-01
      6.49203703703704E+00   6.49203687392619E+00   0.00000000000000E+00   0.00000000000000E+00   1.63110847294628E-03
     -3.56412813163575E-19   1.63110847294628E-03   2.45689371394757E-13   0.00000000000000E+00   1.63110847294628E-07
      0.00000000000000E+00   0.00000000000000E+00  -1.63110847294625E-03  -1.21785823124415E-17  -1.63110847294626E-03
     -2.46198277427104E-13
      6.59203703703704E-01
      6.59203703703704E+00   6.59203684678333E+00   0.00000000000000E+00   0.00000000000000E+00   1.90253715916339E-03
     -2.04004168775862E-18   1.90253715916338E-03   2.46718826739932E-13   0.00000000000000E+00   1.90253715916339E-07
      0.00000000000000E+00   0.00000000000000E+00  -1.90253715916328E-03  -1.50116592441058E-16  -1.90253715916343E-03
     -2.47202386829073E-13
      6.69203703703704E-01
      6.69203703703704E+00   6.69203681930335E+00   0.00000000000000E+00   0.00000000000000E+00   2.17733685125557E-03
      8.25085984856562E-19   2.17733685125557E-03   2.47727302184020E-13   0.00000000000000E+00   2.17733685125557E-07
      0.00000000000000E+00   0.00000000000000E+00  -2.17733685125551E-03  -5.01565817099132E-17  -2.17733685125556E-03
     -2.48191941661667E-13
      6.79203703703704E-01
      6.79203703703704E+00   6.79203679149167E+00   0.00000000000000E+00   0.00000000000000E+00   2.45545347084032E-03
      1.20278955567227E-18   2.45545347084033E-03   2.48715352638271E-13   0.00000000000000E+00   2.45545347084032E-07
      0.00000000000000E+00   0.00000000000000E+00  -2.45545347084028E-03  -3.02518249263690E-17  -2.45545347084031E-03
     -2.49164958344678E-13
      6.89203703703704E-01