DF-ISE text

Info {
  version   = 1.0
  type      = xyplot
  datasets  = [
    "time"
    "ntype OuterVoltage" "ntype InnerVoltage" "ntype QuasiFermiPotential" "ntype DisplacementCurrent" "ntype eCurrent"
    "ntype hCurrent" "ntype TotalCurrent" "ntype Charge" "ptype OuterVoltage" "ptype InnerVoltage"
    "ptype QuasiFermiPotential" "ptype DisplacementCurrent" "ptype eCurrent" "ptype hCurrent" "ptype TotalCurrent"
    "ptype Charge" ]
  functions = [
    Time
    OuterVoltage InnerVoltage QuasiFermiPotential DisplacementCurrent eCurrent
    hCurrent TotalCurrent Charge OuterVoltage InnerVoltage
    QuasiFermiPotential DisplacementCurrent eCurrent hCurrent TotalCurrent
    Charge ]
}

Data {
      1.00000000000000E-02
      1.00000000000000E-01   9.99999998896175E-02   0.00000000000000E+00   0.00000000000000E+00   1.10382654412281E-06
     -3.70717015091699E-17   1.10382654408574E-06   3.73933786518257E-30   0.00000000000000E+00   1.10382654408525E-10
      0.00000000000000E+00   0.00000000000000E+00  -1.10382654404664E-06  -3.90954872843857E-17  -1.10382654408573E-06
     -2.11498038341852E-27
      2.00000000000000E-02
      2.00000000000000E-01   1.99999999888626E-01   0.00000000000000E+00   0.00000000000000E+00   1.11374326763585E-06
     -1.25028934791862E-16   1.11374326751082E-06   2.97725687688818E-30   0.00000000000000E+00   1.11374326751103E-10
      0.00000000000000E+00   0.00000000000000E+00  -1.11374326544888E-06  -2.06193774836356E-15  -1.11374326751082E-06
     -5.94406235736547E-27
      3.00000000000000E-02
      3.00000000000000E-01   2.99999999887748E-01   0.00000000000000E+00   0.00000000000000E+00   1.12253810673466E-06
     -8.31220860995322E-17   1.12253810665154E-06  -5.69746262677230E-30   0.00000000000000E+00   1.12253810665164E-10
      0.00000000000000E+00   0.00000000000000E+00  -1.12253810328245E-06  -3.36909585250499E-15  -1.12253810665155E-06
      7.05224907958174E-27
      4.00000000000000E-02
      4.00000000000000E-01   3.99999999886952E-01   0.00000000000000E+00   0.00000000000000E+00   1.13047071380527E-06
     -5.52574379686469E-17   1.13047071375001E-06  -2.42988918291483E-30   0.00000000000000E+00   1.13047071375032E-10
      0.00000000000000E+00   0.00000000000000E+00  -1.13047070992626E-06  -3.82373657429482E-15  -1.13047071375000E-06
      4.49937454098454E-27
      5.00000000000000E-02
      5.00000000000000E-01   4.99999999886222E-01   0.00000000000000E+00   0.00000000000000E+00   1.13778397893121E-06
     -3.53022780881453E-17   1.13778397889591E-06  -3.20104256392701E-30   0.00000000000000E+00   1.13778397889598E-10
      0.00000000000000E+00   0.00000000000000E+00  -1.13778397504646E-06  -3.84942900788563E-15  -1.13778397889589E-06
     -1.47267917204622E-27
      6.00000000000000E-02
      6.00000000000000E-01   5.99999999885533E-01   0.00000000000000E+00   0.00000000000000E+00   1.14470155673654E-06
     -2.08080272960402E-17   1.14470155671573E-06   8.17724996963498E-30   0.00000000000000E+00   1.14470155671568E-10
      0.00000000000000E+00   0.00000000000000E+00  -1.14470155432129E-06  -2.39445939514603E-15  -1.14470155671575E-06
     -1.69738419488045E-28
      7.00000000000000E-02
      7.00000000000000E-01   6.99999999884859E-01   0.00000000000000E+00   0.00000000000000E+00   1.15138396354661E-06
     -1.03371298445398E-17   1.15138396353628E-06  -4.50595504983585E-31   0.00000000000000E+00   1.15138396353629E-10
      0.00000000000000E+00   0.00000000000000E+00  -1.15138396263308E-06  -9.03197546935263E-16  -1.15138396353628E-06
     -2.62281663818955E-27
      8.00000000000000E-02
      8.00000000000000E-01   7.99999999884205E-01   0.00000000000000E+00   0.00000000000000E+00   1.15794617657874E-06
     -4.45033215689935E-18   1.15794617657429E-06   2.19703110315822E-30   0.00000000000000E+00   1.15794617657434E-10
      0.00000000000000E+00   0.00000000000000E+00  -1.15794617658984E-06   1.55376093014640E-17  -1.15794617657430E-06
      2.71029869703630E-27
      9.00000000000000E-02
      9.00000000000000E-01   8.99999999883559E-01   0.00000000000000E+00   0.00000000000000E+00   1.16447697227524E-06
     -2.63119477085313E-18   1.16447697227261E-06  -1.69351330732086E-30   0.00000000000000E+00   1.16447697227258E-10
      0.00000000000000E+00   0.00000000000000E+00  -1.16447697265215E-06   3.79542926698869E-16  -1.16447697227261E-06
     -2.53257657195660E-27
      1.00000000000000E-01
      1.00000000000000E+00   9.99999999882901E-01   0.00000000000000E+00   0.00000000000000E+00   1.17105774095803E-06
     -2.47566157114843E-18   1.17105774095555E-06  -5.49938205243388E-30   0.00000000000000E+00   1.17105774095555E-10
      0.00000000000000E+00   0.00000000000000E+00  -1.17105774081736E-06  -1.38188683902385E-16  -1.17105774095555E-06
     -2.19382552439793E-28
      1.10000000000000E-01
      1.10000000000000E+00   1.09999999988221E+00   0.00000000000000E+00   0.00000000000000E+00   1.17778260161547E-06
     -2.34826265441831E-18   1.17778260161312E-06  -1.33031518551865E-29   0.00000000000000E+00   1.17778260161310E-10
      0.00000000000000E+00   0.00000000000000E+00  -1.17778260118545E-06  -4.27649090378253E-16  -1.17778260161310E-06
     -8.68511041745326E-27
      1.20000000000000E-01
      1.20000000000000E+00   1.19999999988153E+00   0.00000000000000E+00   0.00000000000000E+00   1.18472004993700E-06
     -2.38098556982697E-18   1.18472004993461E-06   1.88373114130386E-29   0.00000000000000E+00   1.18472004993460E-10
      0.00000000000000E+00   0.00000000000000E+00  -1.18472004961516E-06  -3.19448783785535E-16  -1.18472004993461E-06
     -7.51871522355965E-28
      1.30000000000000E-01
      1.30000000000000E+00   1.29999999988080E+00   0.00000000000000E+00   0.00000000000000E+00   1.19193196609937E-06
     -2.35942539692718E-18   1.19193196609701E-06  -4.91421272213641E-30   0.00000000000000E+00   1.19193196609701E-10
      0.00000000000000E+00   0.00000000000000E+00  -1.19193196591430E-06  -1.82702997761996E-16  -1.19193196609701E-06
     -9.96172913460622E-28
      1.40000000000000E-01
      1.40000000000000E+00   1.39999999988005E+00   0.00000000000000E+00   0.00000000000000E+00   1.19946985705612E-06
     -2.43274164977138E-18   1.19946985705369E-06  -9.35968515385365E-31   0.00000000000000E+00   1.19946985705370E-10
      0.00000000000000E+00   0.00000000000000E+00  -1.19946985736062E-06   3.06932545111318E-16  -1.19946985705369E-06
      1.50437206394036E-26
      1.50000000000000E-01
      1.50000000000000E+00   1.49999999987927E+00   0.00000000000000E+00   0.00000000000000E+00   1.20735990877109E-06
     -3.83093570161948E-18   1.20735990876726E-06   5.60976283050033E-31   0.00000000000000E+00   1.20735990876726E-10
      0.00000000000000E+00   0.00000000000000E+00  -1.20735990824376E-06  -5.23490213007425E-16  -1.20735990876725E-06
      5.67970493009268E-27
      1.60000000000000E-01
      1.60000000000000E+00   1.59999999987844E+00   0.00000000000000E+00   0.00000000000000E+00   1.21562809321239E-06
     -2.56850434718435E-17   1.21562809318671E-06  -1.84683674425151E-29   0.00000000000000E+00   1.21562809318671E-10
      0.00000000000000E+00   0.00000000000000E+00  -1.21562809239806E-06  -7.88649007376832E-16  -1.21562809318671E-06
     -2.43663178518270E-26
      1.70000000000000E-01
      1.70000000000000E+00   1.69999999987757E+00   0.00000000000000E+00   0.00000000000000E+00   1.22426088383837E-06
     -1.20937811196681E-20   1.22426088383836E-06   3.02488693865658E-29   0.00000000000000E+00   1.22426088383836E-10
      0.00000000000000E+00   0.00000000000000E+00  -1.22426088381448E-06  -2.38899539787439E-17  -1.22426088383837E-06
     -1.55430651345908E-27
      1.80000000000000E-01
      1.80000000000000E+00   1.79999999987669E+00   0.00000000000000E+00   0.00000000000000E+00   1.23321485773318E-06
     -2.93027323808005E-19   1.23321485773288E-06   6.25541477891641E-30   0.00000000000000E+00   1.23321485773288E-10
      0.00000000000000E+00   0.00000000000000E+00  -1.23321485757060E-06  -1.62276742672800E-16  -1.23321485773288E-06
      1.08686780898183E-26
      1.90000000000000E-01
      1.90000000000000E+00   1.89999999987576E+00   0.00000000000000E+00   0.00000000000000E+00   1.24234308423551E-06
     -8.11014678942653E-17   1.24234308415441E-06   6.80429453834272E-30   0.00000000000000E+00   1.24234308415441E-10
      0.00000000000000E+00   0.00000000000000E+00  -1.24234307104953E-06  -1.31048620420365E-14  -1.24234308415440E-06
      7.55529511099778E-27
      2.00000000000000E-01
      2.00000000000000E+00   1.99999999987484E+00   0.00000000000000E+00   0.00000000000000E+00   1.25160381991138E-06
     -3.03882537351139E-18   1.25160381990834E-06   1.29387440810219E-29   0.00000000000000E+00   1.25160381990834E-10
      0.00000000000000E+00   0.00000000000000E+00  -1.25160381939884E-06  -5.09500903836783E-16  -1.25160381990834E-06
      1.92020216002938E-27
      2.10000000000000E-01
      2.10000000000000E+00   2.09999999987388E+00   0.00000000000000E+00   0.00000000000000E+00   1.26114075456807E-06
     -5.46519394518179E-21   1.26114075456807E-06   1.53157109730830E-29   0.00000000000000E+00   1.26114075456807E-10
      0.00000000000000E+00   0.00000000000000E+00  -1.26114075460265E-06   3.45981108103724E-17  -1.26114075456805E-06
      1.78970486317668E-27
      2.20000000000000E-01
      2.20000000000000E+00   2.19999999987290E+00   0.00000000000000E+00   0.00000000000000E+00   1.27111452736030E-06
     -3.73351208330723E-19   1.27111452735992E-06   4.53619635889515E-31   0.00000000000000E+00   1.27111452735992E-10
      0.00000000000000E+00   0.00000000000000E+00  -1.27111452741985E-06   5.99213408105561E-17  -1.27111452735993E-06
     -8.84449421271940E-28
      2.30000000000000E-01
      2.30000000000000E+00   2.29999999987181E+00   0.00000000000000E+00   0.00000000000000E+00   1.28179543774844E-06
     -1.58354870448097E-21   1.28179543774844E-06  -1.77214071087504E-30   0.00000000000000E+00   1.28179543774843E-10
      0.00000000000000E+00   0.00000000000000E+00  -1.28179543772085E-06  -2.75678631698071E-17  -1.28179543774842E-06
     -4.01720710934305E-27
      2.40000000000000E-01
      2.40000000000000E+00   2.39999999987067E+00   0.00000000000000E+00   0.00000000000000E+00   1.29338304633488E-06
      1.84896086414538E-20   1.29338304633490E-06   3.89810473774390E-30   0.00000000000000E+00   1.29338304633490E-10
      0.00000000000000E+00   0.00000000000000E+00  -1.29338304618545E-06  -1.49451219479624E-16  -1.29338304633490E-06
      4.42568251906884E-27
      2.50000000000000E-01
      2.50000000000000E+00   2.49999999986938E+00   0.00000000000000E+00   0.00000000000000E+00   1.30605473558755E-06
      1.50792787117809E-16   1.30605473573834E-06   4.94142990028978E-30   0.00000000000000E+00   1.30605473573834E-10
      0.00000000000000E+00   0.00000000000000E+00  -1.30605476977523E-06   3.40368892059909E-14  -1.30605473573834E-06
     -1.05360720762605E-27
      2.60000000000000E-01
      2.60000000000000E+00   2.59999999986801E+00   0.00000000000000E+00   0.00000000000000E+00   1.32000589061588E-06
      1.14602739479717E-16   1.32000589073048E-06  -5.49182172516906E-30   0.00000000000000E+00   1.32000589073048E-10
      0.00000000000000E+00   0.00000000000000E+00  -1.32000580803781E-06  -8.26926753688026E-14  -1.32000589073049E-06
      4.05572244056097E-28
      2.70000000000000E-01
      2.70000000000000E+00   2.69999999986644E+00   0.00000000000000E+00   0.00000000000000E+00   1.33543985282692E-06
      1.00419906251672E-16   1.33543985292734E-06   8.62784547461857E-30   0.00000000000000E+00   1.33543985292734E-10
      0.00000000000000E+00   0.00000000000000E+00  -1.33543945703035E-06  -3.95896994857211E-13  -1.33543985292734E-06
     -1.36090729376304E-27
      2.80000000000000E-01
      2.80000000000000E+00   2.79999999986475E+00   0.00000000000000E+00   0.00000000000000E+00   1.35255492786572E-06
      1.10117266758279E-16   1.35255492797584E-06   3.76443815170179E-29   0.00000000000000E+00   1.35255492797583E-10
      0.00000000000000E+00   0.00000000000000E+00  -1.35255380224538E-06  -1.12573047020857E-12  -1.35255492797585E-06
     -7.83128939399658E-27
      2.90000000000000E-01
      2.90000000000000E+00   2.89999999986286E+00   0.00000000000000E+00   0.00000000000000E+00   1.37157339372209E-06
      1.39979699156483E-16   1.37157339386207E-06   4.46966547896469E-30   0.00000000000000E+00   1.37157339386206E-10
      0.00000000000000E+00   0.00000000000000E+00  -1.37157179868861E-06  -1.59517346490629E-12  -1.37157339386207E-06
      6.82897144653511E-27
      3.00000000000000E-01
      3.00000000000000E+00   2.99999999986072E+00   0.00000000000000E+00   0.00000000000000E+00   1.39274601717598E-06
      1.82316288795824E-16   1.39274601735830E-06   7.42121724315246E-30   0.00000000000000E+00   1.39274601735830E-10
      0.00000000000000E+00   0.00000000000000E+00  -1.39274542058537E-06  -5.96772951732419E-13  -1.39274601735832E-06
      5.78726721815480E-27
      3.10000000000000E-01
      3.10000000000000E+00   3.09999999985836E+00   0.00000000000000E+00   0.00000000000000E+00   1.41634736913081E-06
      2.27857847216737E-16   1.41634736935867E-06   1.12013808755651E-29   0.00000000000000E+00   1.41634736935867E-10
      0.00000000000000E+00   0.00000000000000E+00  -1.41634743289822E-06   6.35395320587898E-14  -1.41634736935868E-06
      2.87631138724823E-27
      3.20000000000000E-01
      3.20000000000000E+00   3.19999999985572E+00   0.00000000000000E+00   0.00000000000000E+00   1.44270438030017E-06
      2.67432039357325E-16   1.44270438056760E-06  -1.75747367598128E-29   0.00000000000000E+00   1.44270438056760E-10
      0.00000000000000E+00   0.00000000000000E+00  -1.44270447193706E-06   9.13694570592539E-14  -1.44270438056760E-06
      5.99634353246719E-27
      3.30000000000000E-01
      3.30000000000000E+00   3.29999999985279E+00   0.00000000000000E+00   0.00000000000000E+00   1.47221827390283E-06
      3.01378208472011E-16   1.47221827420421E-06  -1.30944868226773E-30   0.00000000000000E+00   1.47221827420422E-10
      0.00000000000000E+00   0.00000000000000E+00  -1.47221828861916E-06   1.44149499462010E-14  -1.47221827420421E-06
      6.29488573550061E-27
      3.40000000000000E-01
      3.40000000000000E+00   3.39999999984949E+00   0.00000000000000E+00   0.00000000000000E+00   1.50536509438936E-06
      3.33561684618947E-16   1.50536509472292E-06  -2.64656816232473E-29   0.00000000000000E+00   1.50536509472292E-10
      0.00000000000000E+00   0.00000000000000E+00  -1.50536505807546E-06  -3.66474779336897E-14  -1.50536509472294E-06
      1.26458993406153E-26
      3.50000000000000E-01
      3.50000000000000E+00   3.49999999984572E+00   0.00000000000000E+00   0.00000000000000E+00   1.54269210442246E-06
      3.63562683739318E-16   1.54269210478603E-06   2.87352918681478E-29   0.00000000000000E+00   1.54269210478603E-10
      0.00000000000000E+00   0.00000000000000E+00  -1.54269205098022E-06  -5.38058096961932E-14  -1.54269210478603E-06
     -4.23233168546729E-27
      3.60000000000000E-01
      3.60000000000000E+00   3.59999999984153E+00   0.00000000000000E+00   0.00000000000000E+00   1.58482557486305E-06
      3.89059814700060E-16   1.58482557525211E-06   8.63994199824229E-30   0.00000000000000E+00   1.58482557525211E-10
      0.00000000000000E+00   0.00000000000000E+00  -1.58482552309863E-06  -5.21534821878055E-14  -1.58482557525212E-06
     -1.89392851071865E-27
      3.70000000000000E-01
      3.70000000000000E+00   3.69999999983675E+00   0.00000000000000E+00   0.00000000000000E+00   1.63249254454172E-06
      4.10452051577931E-16   1.63249254495217E-06   7.14904546161875E-30   0.00000000000000E+00   1.63249254495217E-10
      0.00000000000000E+00   0.00000000000000E+00  -1.63249250377700E-06  -4.11751721780620E-14  -1.63249254495217E-06
     -9.25103417866540E-27
      3.80000000000000E-01
      3.80000000000000E+00   3.79999999983133E+00   0.00000000000000E+00   0.00000000000000E+00   1.68655190297564E-06
      4.31673233940579E-16   1.68655190340732E-06  -6.16771498264443E-30   0.00000000000000E+00   1.68655190340731E-10
      0.00000000000000E+00   0.00000000000000E+00  -1.68655187898722E-06  -2.44200755459169E-14  -1.68655190340730E-06
     -2.08464714077968E-26
      3.90000000000000E-01
      3.90000000000000E+00   3.89999999982520E+00   0.00000000000000E+00   0.00000000000000E+00   1.74803345716571E-06
      4.55385704701302E-16   1.74803345762110E-06  -1.63076259102281E-29   0.00000000000000E+00   1.74803345762110E-10
      0.00000000000000E+00   0.00000000000000E+00  -1.74803345430711E-06  -3.31399199999409E-15  -1.74803345762110E-06
     -2.87510173488586E-27
      4.00000000000000E-01
      4.00000000000000E+00   3.99999999981816E+00   0.00000000000000E+00   0.00000000000000E+00   1.81818755184029E-06
      4.79545979786690E-16   1.81818755231983E-06   2.00439396445047E-29   0.00000000000000E+00   1.81818755231984E-10
      0.00000000000000E+00   0.00000000000000E+00  -1.81818757380842E-06   2.14886176639483E-14  -1.81818755231980E-06
     -3.68818166677785E-27
      4.10000000000000E-01
      4.10000000000000E+00   4.09999999981015E+00   0.00000000000000E+00   0.00000000000000E+00   1.89854440258460E-06
      4.98827210487525E-16   1.89854440308343E-06  -1.06026029561909E-29   0.00000000000000E+00   1.89854440308343E-10
      0.00000000000000E+00   0.00000000000000E+00  -1.89854444953809E-06   4.64546581614398E-14  -1.89854440308343E-06
     -6.08019663422682E-27
      4.20000000000000E-01
      4.20000000000000E+00   4.19999999980091E+00   0.00000000000000E+00   0.00000000000000E+00   1.99097994828704E-06
      5.10553681483932E-16   1.99097994879760E-06  -9.01191009967169E-31   0.00000000000000E+00   1.99097994879760E-10
      0.00000000000000E+00   0.00000000000000E+00  -1.99098001552305E-06   6.67254546555298E-14  -1.99097994879759E-06
      1.01169517257458E-26
      4.30000000000000E-01
      4.30000000000000E+00   4.29999999979021E+00   0.00000000000000E+00   0.00000000000000E+00   2.09779205956643E-06
      5.15607179228183E-16   2.09779206008204E-06   2.01860737970834E-30   0.00000000000000E+00   2.09779206008204E-10
      0.00000000000000E+00   0.00000000000000E+00  -2.09779213933419E-06   7.92521652173044E-14  -2.09779206008202E-06
     -3.52376571768425E-27
      4.40000000000000E-01
      4.40000000000000E+00   4.39999999977784E+00   0.00000000000000E+00   0.00000000000000E+00   2.22179508420355E-06
      5.17338799929894E-16   2.22179508472089E-06   7.61476162113199E-30   0.00000000000000E+00   2.22179508472089E-10
      0.00000000000000E+00   0.00000000000000E+00  -2.22179515757314E-06   7.28522863676812E-14  -2.22179508472085E-06
     -8.65549812762239E-27
      4.50000000000000E-01
      4.50000000000000E+00   4.49999999976339E+00   0.00000000000000E+00   0.00000000000000E+00   2.36644148828970E-06
      5.21234539010586E-16   2.36644148881094E-06   3.46822452946593E-29   0.00000000000000E+00   2.36644148881094E-10
      0.00000000000000E+00   0.00000000000000E+00  -2.36644151453824E-06   2.57272859231644E-14  -2.36644148881095E-06
      6.24238682297366E-27
      4.60000000000000E-01
      4.60000000000000E+00   4.59999999974642E+00   0.00000000000000E+00   0.00000000000000E+00   2.53598452697808E-06
      5.31679178297519E-16   2.53598452750976E-06  -1.21811992890864E-29   0.00000000000000E+00   2.53598452750977E-10
      0.00000000000000E+00   0.00000000000000E+00  -2.53598449950695E-06  -2.80027767698179E-14  -2.53598452750972E-06
     -7.34317047273222E-27
      4.70000000000000E-01
      4.70000000000000E+00   4.69999999972641E+00   0.00000000000000E+00   0.00000000000000E+00   2.73570357829738E-06
      5.48148711817061E-16   2.73570357884552E-06  -5.16823971823454E-30   0.00000000000000E+00   2.73570357884551E-10
      0.00000000000000E+00   0.00000000000000E+00  -2.73570351669369E-06  -6.21518172798254E-14  -2.73570357884551E-06
     -2.19788995633550E-27
      4.80000000000000E-01
      4.80000000000000E+00   4.79999999970279E+00   0.00000000000000E+00   0.00000000000000E+00   2.97221695285251E-06
      5.66835183955379E-16   2.97221695341934E-06  -2.55539061551093E-30   0.00000000000000E+00   2.97221695341934E-10
      0.00000000000000E+00   0.00000000000000E+00  -2.97221693761801E-06  -1.58013498798610E-14  -2.97221695341936E-06
     -4.87083458842175E-27
      4.90000000000000E-01
      4.90000000000000E+00   4.89999999967462E+00   0.00000000000000E+00   0.00000000000000E+00   3.25390920948271E-06
      5.85978209562081E-16   3.25390921006868E-06  -7.56939965754304E-30   0.00000000000000E+00   3.25390921006869E-10
      0.00000000000000E+00   0.00000000000000E+00  -3.25390924995014E-06   3.98815062375680E-14  -3.25390921006863E-06
     -6.51847787816146E-27
      5.00000000000000E-01
      5.00000000000000E+00   4.99999999964086E+00   0.00000000000000E+00   0.00000000000000E+00   3.59151551311725E-06
      6.06949761652584E-16   3.59151551372420E-06  -2.33765319028397E-30   0.00000000000000E+00   3.59151551372420E-10
      0.00000000000000E+00   0.00000000000000E+00  -3.59151556964428E-06   5.59200642851681E-14  -3.59151551372422E-06
      1.32187906994347E-26
      5.10000000000000E-01
      5.10000000000000E+00   5.09999999960013E+00   0.00000000000000E+00   0.00000000000000E+00   3.99893419596259E-06
      6.32132694894528E-16   3.99893419659473E-06   2.41310525638692E-29   0.00000000000000E+00   3.99893419659472E-10
      0.00000000000000E+00   0.00000000000000E+00  -3.99893424818913E-06   5.15944182686448E-14  -3.99893419659472E-06
     -4.43565005453478E-27
      5.20000000000000E-01
      5.20000000000000E+00   5.19999999955057E+00   0.00000000000000E+00   0.00000000000000E+00   4.49438474233976E-06
      6.62932750679510E-16   4.49438474300269E-06   1.10033003012267E-29   0.00000000000000E+00   4.49438474300269E-10
      0.00000000000000E+00   0.00000000000000E+00  -4.49438478849054E-06   4.54878764144262E-14  -4.49438474300266E-06
      1.01088228618707E-27
      5.30000000000000E-01
      5.30000000000000E+00   5.29999999948977E+00   0.00000000000000E+00   0.00000000000000E+00   5.10210300197251E-06
      6.99460405865472E-16   5.10210300267197E-06   1.47577588209389E-30   0.00000000000000E+00   5.10210300267198E-10
      0.00000000000000E+00   0.00000000000000E+00  -5.10210304753249E-06   4.48605259230746E-14  -5.10210300267196E-06
     -7.13849729301887E-27
      5.40000000000000E-01
      5.40000000000000E+00   5.39999999941448E+00   0.00000000000000E+00   0.00000000000000E+00   5.85489558205158E-06
      7.42242425789028E-16   5.85489558279382E-06  -5.09717264194518E-30   0.00000000000000E+00   5.85489558279384E-10
      0.00000000000000E+00   0.00000000000000E+00  -5.85489563195938E-06   4.91655068548785E-14  -5.85489558279387E-06
     -7.88180447664924E-27
      5.50000000000000E-01
      5.50000000000000E+00   5.49999999932015E+00   0.00000000000000E+00   0.00000000000000E+00   6.79812668536043E-06
      7.96968860210714E-16   6.79812668615740E-06  -4.10223357389418E-29   0.00000000000000E+00   6.79812668615742E-10
      0.00000000000000E+00   0.00000000000000E+00  -6.79812674412245E-06   5.79650048603417E-14  -6.79812668615744E-06
     -1.07291325932950E-27
      5.60000000000000E-01
      5.60000000000000E+00   5.59999999920037E+00   0.00000000000000E+00   0.00000000000000E+00   7.99620620426348E-06
      8.79047669887818E-16   7.99620620514252E-06   1.54412124056791E-29   0.00000000000000E+00   7.99620620514253E-10
      0.00000000000000E+00   0.00000000000000E+00  -7.99620627480152E-06   6.96590327802778E-14  -7.99620620514249E-06
     -4.32532975908645E-27
      5.70000000000000E-01
      5.70000000000000E+00   5.69999999904565E+00   0.00000000000000E+00   0.00000000000000E+00   9.54368081684350E-06
      1.02190246157078E-15   9.54368081786541E-06  -1.42406324360248E-29   0.00000000000000E+00   9.54368081786542E-10
      0.00000000000000E+00   0.00000000000000E+00  -9.54368090029864E-06   8.24332603776998E-14  -9.54368081786538E-06
      7.79945134381895E-27
      5.80000000000000E-01
      5.80000000000000E+00   5.79999999884148E+00   0.00000000000000E+00   0.00000000000000E+00   1.15853355510944E-05
      4.92597191680541E-20   1.15853355510945E-05   1.69653743822678E-29   0.00000000000000E+00   1.15853355510944E-09
      0.00000000000000E+00   0.00000000000000E+00  -1.15853355506643E-05  -4.30135652567278E-16  -1.15853355510944E-05
      1.59873462542428E-26
      5.90000000000000E-01
      5.90000000000000E+00   5.89999999856449E+00   0.00000000000000E+00   0.00000000000000E+00   1.43554234305645E-05
      7.26372130105205E-20   1.43554234305646E-05  -2.19309973298051E-29   0.00000000000000E+00   1.43554234305646E-09
      0.00000000000000E+00   0.00000000000000E+00  -1.43554234300874E-05  -4.77052830931529E-16  -1.43554234305644E-05
      2.58999151168422E-26
      6.00000000000000E-01
      6.00000000000000E+00   5.99999999817374E+00   0.00000000000000E+00   0.00000000000000E+00   1.82625451610388E-05
      5.69329030414440E-19   1.82625451610393E-05  -1.18757620675875E-29   0.00000000000000E+00   1.82625451610394E-09
      0.00000000000000E+00   0.00000000000000E+00  -1.82625451609781E-05  -6.11548725969010E-17  -1.82625451610393E-05
      1.23255833950592E-26
      6.10000000000000E-01
      6.10000000000000E+00   6.09999999758940E+00   0.00000000000000E+00   0.00000000000000E+00   2.41060272521075E-05
      7.99230329774392E-18   2.41060272521154E-05   1.86982013913658E-29   0.00000000000000E+00   2.41060272521154E-09
      0.00000000000000E+00   0.00000000000000E+00  -2.41060272517270E-05  -3.88521530123336E-16  -2.41060272521155E-05
     -9.12484324422275E-27
      6.20000000000000E-01
      6.20000000000000E+00   6.19999999661347E+00   0.00000000000000E+00   0.00000000000000E+00   3.38653809298240E-05
      1.11393442772723E-16   3.38653809299354E-05   3.39473814845183E-29   0.00000000000000E+00   3.38653809299355E-09
      0.00000000000000E+00   0.00000000000000E+00  -3.38653809171914E-05  -1.27438351333564E-14  -3.38653809299353E-05
      7.83419255966628E-27
      6.25000000000000E-01
      6.25000000000000E+00   6.24999999575876E+00   0.00000000000000E+00   0.00000000000000E+00   4.24125863629729E-05
      5.10464405871084E-17   4.24125863630239E-05   3.47170228000775E-30   0.00000000000000E+00   4.24125863630237E-09
      0.00000000000000E+00   0.00000000000000E+00  -4.24125863742008E-05   1.11770240775504E-14  -4.24125863630238E-05
     -2.90858491227632E-27
      6.29666666666667E-01
      6.29666666666667E+00   6.29666665995076E+00   0.00000000000000E+00   0.00000000000000E+00   6.71594632615768E-05
      1.15004515988094E-16   6.71594632616918E-05  -2.11265785088277E-29   0.00000000000000E+00   6.71594632616921E-09
      0.00000000000000E+00   0.00000000000000E+00  -6.71594633118409E-05   5.01494651827864E-14  -6.71594632616914E-05
      7.78890317521907E-27
      6.33555555555556E-01
      6.33555555555556E+00   6.33555554054530E+00   0.00000000000000E+00   0.00000000000000E+00   1.50102620619958E-04
      1.45924640920929E-16   1.50102620620104E-04   5.93636896834078E-30   0.00000000000000E+00   1.50102620620105E-08
      0.00000000000000E+00   0.00000000000000E+00  -1.50102620741138E-04   1.21029504184451E-13  -1.50102620620108E-04
     -2.22198623139395E-27
      6.35240740740741E-01
      6.35240740740741E+00   6.35240738664621E+00   0.00000000000000E+00   0.00000000000000E+00   2.07612143555498E-04
     -4.45944596640973E-18   2.07612143555493E-04   1.30793661681477E-29   0.00000000000000E+00   2.07612143555494E-08
      0.00000000000000E+00   0.00000000000000E+00  -2.07612143551070E-04  -4.42267761661359E-15  -2.07612143555492E-04
     -7.09630461861933E-28
      6.38161728395062E-01
      6.38161728395062E+00   6.38161724173921E+00   0.00000000000000E+00   0.00000000000000E+00   4.22114389445983E-04
      2.25402209726291E-16   4.22114389446209E-04  -3.75929712916171E-29   0.00000000000000E+00   4.22114389446209E-08
      0.00000000000000E+00   0.00000000000000E+00  -4.22114389878986E-04   4.32775549416911E-13  -4.22114389446210E-04
      7.31491299354721E-27
      6.43224773662552E-01
      6.43224773662552E+00   6.43224765044159E+00   0.00000000000000E+00   0.00000000000000E+00   8.61838995862728E-04
      2.01048901012408E-16   8.61838995862929E-04  -2.82967928867879E-29   0.00000000000000E+00   8.61838995862926E-08
      0.00000000000000E+00   0.00000000000000E+00  -8.61838996896753E-04   1.03381544203834E-12  -8.61838995862937E-04
      1.06555857296628E-26
      6.52000718792867E-01
      6.52000718792867E+00   6.52000702456688E+00   0.00000000000000E+00   0.00000000000000E+00   1.63361813227093E-03
      3.88323511333926E-16   1.63361813227132E-03   2.20247453878889E-29   0.00000000000000E+00   1.63361813227132E-07
      0.00000000000000E+00   0.00000000000000E+00  -1.63361813551353E-03   3.24218560341255E-12  -1.63361813227134E-03
     -1.12681536859680E-26
      6.62000718792867E-01
      6.62000718792867E+00   6.62000693627013E+00   0.00000000000000E+00   0.00000000000000E+00   2.51658518814391E-03
     -2.76023999930702E-15   2.51658518814115E-03  -9.09053750322587E-30   0.00000000000000E+00   2.51658518814115E-07
      0.00000000000000E+00   0.00000000000000E+00  -2.51658514845538E-03  -3.96857803659615E-11  -2.51658518814116E-03
     -6.28380531986128E-27
      6.72000718792867E-01
      6.72000718792868E+00   6.72000684771083E+00   0.00000000000000E+00   0.00000000000000E+00   3.40217803057803E-03
     -1.52231682246189E-16   3.40217803057788E-03  -7.88995753357163E-30   0.00000000000000E+00   3.40217803057789E-07
      0.00000000000000E+00   0.00000000000000E+00  -3.40217802554542E-03  -5.03243217755923E-12  -3.40217803057785E-03
     -6.49263970370119E-27
      6.82000718792867E-01