DF-ISE text

Info {
  version   = 1.0
  type      = xyplot
  datasets  = [
    "time"
    "ntype OuterVoltage" "ntype InnerVoltage" "ntype QuasiFermiPotential" "ntype DisplacementCurrent" "ntype eCurrent"
    "ntype hCurrent" "ntype TotalCurrent" "ntype Charge" "ptype OuterVoltage" "ptype InnerVoltage"
    "ptype QuasiFermiPotential" "ptype DisplacementCurrent" "ptype eCurrent" "ptype hCurrent" "ptype TotalCurrent"
    "ptype Charge" ]
  functions = [
    Time
    OuterVoltage InnerVoltage QuasiFermiPotential DisplacementCurrent eCurrent
    hCurrent TotalCurrent Charge OuterVoltage InnerVoltage
    QuasiFermiPotential DisplacementCurrent eCurrent hCurrent TotalCurrent
    Charge ]
}

Data {
      1.00000000000000E-02
      1.00000000000000E-01   9.99999998888415E-02   0.00000000000000E+00   0.00000000000000E+00   1.11158731285496E-06
     -1.03329256233129E-16   1.11158731275163E-06  -5.30734973990732E-30   0.00000000000000E+00   1.11158731275169E-10
      0.00000000000000E+00   0.00000000000000E+00  -1.11158731229682E-06  -4.54801704792175E-16  -1.11158731275162E-06
      4.30466889673714E-28
      2.00000000000000E-02
      2.00000000000000E-01   1.99999999887901E-01   0.00000000000000E+00   0.00000000000000E+00   1.12098775444614E-06
     -2.66878758254393E-16   1.12098775417927E-06  -6.95550108363922E-32   0.00000000000000E+00   1.12098775417941E-10
      0.00000000000000E+00   0.00000000000000E+00  -1.12098774892874E-06  -5.25053162354381E-15  -1.12098775417928E-06
      7.71296119990935E-27
      3.00000000000000E-02
      3.00000000000000E-01   2.99999999887073E-01   0.00000000000000E+00   0.00000000000000E+00   1.12926138069011E-06
     -1.27379995625040E-16   1.12926138056273E-06  -2.01558324880241E-29   0.00000000000000E+00   1.12926138056274E-10
      0.00000000000000E+00   0.00000000000000E+00  -1.12926137444706E-06  -6.11566256848202E-15  -1.12926138056273E-06
     -3.82187244586721E-27
      4.00000000000000E-02
      4.00000000000000E-01   3.99999999886325E-01   0.00000000000000E+00   0.00000000000000E+00   1.13676392209704E-06
     -5.87471542299317E-17   1.13676392203829E-06  -5.98173093192973E-30   0.00000000000000E+00   1.13676392203826E-10
      0.00000000000000E+00   0.00000000000000E+00  -1.13676391704736E-06  -4.99093078904713E-15  -1.13676392203829E-06
     -3.43700945025492E-27
      5.00000000000000E-02
      5.00000000000000E-01   4.99999999885619E-01   0.00000000000000E+00   0.00000000000000E+00   1.14378039136177E-06
     -2.58978816525055E-17   1.14378039133587E-06  -3.43541270913659E-30   0.00000000000000E+00   1.14378039133597E-10
      0.00000000000000E+00   0.00000000000000E+00  -1.14378038843110E-06  -2.90476061246854E-15  -1.14378039133586E-06
     -9.27798523329905E-27
      6.00000000000000E-02
      6.00000000000000E-01   5.99999999884952E-01   0.00000000000000E+00   0.00000000000000E+00   1.15048809638167E-06
     -9.71006939966285E-18   1.15048809637196E-06   7.72665446465140E-30   0.00000000000000E+00   1.15048809637194E-10
      0.00000000000000E+00   0.00000000000000E+00  -1.15048809572900E-06  -6.42942585178363E-16  -1.15048809637194E-06
     -1.00888394048443E-26
      7.00000000000000E-02
      7.00000000000000E-01   6.99999999884298E-01   0.00000000000000E+00   0.00000000000000E+00   1.15700175074944E-06
     -4.15435807428633E-18   1.15700175074528E-06  -6.80429453834272E-30   0.00000000000000E+00   1.15700175074533E-10
      0.00000000000000E+00   0.00000000000000E+00  -1.15700174994458E-06  -8.00685086447017E-16  -1.15700175074526E-06
     -7.11217525761365E-27
      8.00000000000000E-02
      8.00000000000000E-01   7.99999999883658E-01   0.00000000000000E+00   0.00000000000000E+00   1.16342271927200E-06
     -3.13406882774486E-18   1.16342271926887E-06  -6.14503400084996E-30   0.00000000000000E+00   1.16342271926889E-10
      0.00000000000000E+00   0.00000000000000E+00  -1.16342271934630E-06   7.74349263930154E-17  -1.16342271926886E-06
     -2.94221324795026E-27
      9.00000000000000E-02
      9.00000000000000E-01   8.99999999883014E-01   0.00000000000000E+00   0.00000000000000E+00   1.16985999786402E-06
     -2.67200736680142E-18   1.16985999786135E-06   8.86070355437519E-31   0.00000000000000E+00   1.16985999786134E-10
      0.00000000000000E+00   0.00000000000000E+00  -1.16985999754668E-06  -3.14688877240202E-16  -1.16985999786136E-06
     -4.83270634595978E-27
      1.00000000000000E-01
      1.00000000000000E+00   9.99999999882354E-01   0.00000000000000E+00   0.00000000000000E+00   1.17643225692785E-06
     -2.10998164303036E-18   1.17643225692574E-06  -5.25896364541244E-30   0.00000000000000E+00   1.17643225692574E-10
      0.00000000000000E+00   0.00000000000000E+00  -1.17643225660004E-06  -3.25690119315529E-16  -1.17643225692573E-06
      1.28818783234668E-26
      1.10000000000000E-01
      1.10000000000000E+00   1.09999999988168E+00   0.00000000000000E+00   0.00000000000000E+00   1.18322875156780E-06
     -1.54173533653404E-18   1.18322875156626E-06  -1.16701211659842E-29   0.00000000000000E+00   1.18322875156627E-10
      0.00000000000000E+00   0.00000000000000E+00  -1.18322875175238E-06   1.86111902477583E-16  -1.18322875156627E-06
     -1.55759192927528E-26
      1.20000000000000E-01
      1.20000000000000E+00   1.19999999988097E+00   0.00000000000000E+00   0.00000000000000E+00   1.19034007986753E-06
     -6.46245564742825E-19   1.19034007986688E-06  -3.72270514519995E-30   0.00000000000000E+00   1.19034007986687E-10
      0.00000000000000E+00   0.00000000000000E+00  -1.19034007953553E-06  -3.31344960735801E-16  -1.19034007986688E-06
     -1.67955875766853E-26
      1.30000000000000E-01
      1.30000000000000E+00   1.29999999988022E+00   0.00000000000000E+00   0.00000000000000E+00   1.19784754353069E-06
      2.91453023384388E-19   1.19784754353098E-06   9.48669865190272E-30   0.00000000000000E+00   1.19784754353098E-10
      0.00000000000000E+00   0.00000000000000E+00  -1.19784754376058E-06   2.29611674053388E-16  -1.19784754353097E-06
     -5.46264491018864E-27
      1.40000000000000E-01
      1.40000000000000E+00   1.39999999987942E+00   0.00000000000000E+00   0.00000000000000E+00   1.20581056053362E-06
      1.04275068803848E-18   1.20581056053467E-06  -9.65000172082294E-30   0.00000000000000E+00   1.20581056053466E-10
      0.00000000000000E+00   0.00000000000000E+00  -1.20581055985179E-06  -6.82872096472274E-16  -1.20581056053466E-06
      6.03263310333835E-27
      1.50000000000000E-01
      1.50000000000000E+00   1.49999999987857E+00   0.00000000000000E+00   0.00000000000000E+00   1.21429351444661E-06
      1.26976223040628E-18   1.21429351444788E-06  -1.75339109925827E-29   0.00000000000000E+00   1.21429351444787E-10
      0.00000000000000E+00   0.00000000000000E+00  -1.21429351377154E-06  -6.76325026278048E-16  -1.21429351444787E-06
      5.66262463873599E-28
      1.60000000000000E-01
      1.60000000000000E+00   1.59999999987767E+00   0.00000000000000E+00   0.00000000000000E+00   1.22333160147195E-06
      9.68563341644847E-19   1.22333160147292E-06  -1.69139641568670E-29   0.00000000000000E+00   1.22333160147293E-10
      0.00000000000000E+00   0.00000000000000E+00  -1.22333160069785E-06  -7.75092865404992E-16  -1.22333160147294E-06
     -2.24215839418887E-26
      1.70000000000000E-01
      1.70000000000000E+00   1.69999999987670E+00   0.00000000000000E+00   0.00000000000000E+00   1.23299012179748E-06
      4.25533046723386E-19   1.23299012179791E-06   1.46095764065483E-29   0.00000000000000E+00   1.23299012179792E-10
      0.00000000000000E+00   0.00000000000000E+00  -1.23299012201737E-06   2.19454812239500E-16  -1.23299012179791E-06
      4.19255831579250E-27
      1.80000000000000E-01
      1.80000000000000E+00   1.79999999987566E+00   0.00000000000000E+00   0.00000000000000E+00   1.24332030468891E-06
     -1.45447915669371E-19   1.24332030468876E-06   1.01368867966777E-29   0.00000000000000E+00   1.24332030468876E-10
      0.00000000000000E+00   0.00000000000000E+00  -1.24332030454073E-06  -1.48019901731028E-16  -1.24332030468875E-06
     -4.14276902455726E-27
      1.90000000000000E-01
      1.90000000000000E+00   1.89999999987456E+00   0.00000000000000E+00   0.00000000000000E+00   1.25441265783287E-06
     -9.66170737128993E-19   1.25441265783190E-06   5.81237960119765E-30   0.00000000000000E+00   1.25441265783190E-10
      0.00000000000000E+00   0.00000000000000E+00  -1.25441265730644E-06  -5.25465093198373E-16  -1.25441265783190E-06
     -9.85348944122117E-27
      2.00000000000000E-01
      2.00000000000000E+00   1.99999999987337E+00   0.00000000000000E+00   0.00000000000000E+00   1.26633808291636E-06
     -4.27213088075074E-18   1.26633808291208E-06   2.97241826743869E-29   0.00000000000000E+00   1.26633808291208E-10
      0.00000000000000E+00   0.00000000000000E+00  -1.26633808297229E-06   6.01975906727851E-17  -1.26633808291210E-06
      1.59777658075328E-26
      2.10000000000000E-01
      2.10000000000000E+00   2.09999999987208E+00   0.00000000000000E+00   0.00000000000000E+00   1.27919125053385E-06
     -3.39793784086608E-17   1.27919125049987E-06  -7.91112644991314E-30   0.00000000000000E+00   1.27919125049988E-10
      0.00000000000000E+00   0.00000000000000E+00  -1.27919125061575E-06   1.15870812852528E-16  -1.27919125049988E-06
     -4.53624474498964E-27
      2.20000000000000E-01
      2.20000000000000E+00   2.19999999987070E+00   0.00000000000000E+00   0.00000000000000E+00   1.29300923884086E-06
     -6.57503870277906E-16   1.29300923818336E-06  -7.31839679235084E-31   0.00000000000000E+00   1.29300923818336E-10
      0.00000000000000E+00   0.00000000000000E+00  -1.29300923276606E-06  -5.41728858807470E-15  -1.29300923818335E-06
      7.53618260367230E-27
      2.30000000000000E-01
      2.30000000000000E+00   2.29999999986924E+00   0.00000000000000E+00   0.00000000000000E+00   1.30765360773755E-06
     -3.03429241977847E-17   1.30765360770721E-06   4.68740290419165E-30   0.00000000000000E+00   1.30765360770720E-10
      0.00000000000000E+00   0.00000000000000E+00  -1.30765360733080E-06  -3.76415539990318E-16  -1.30765360770721E-06
      2.75316877675876E-29
      2.40000000000000E-01
      2.40000000000000E+00   2.39999999986774E+00   0.00000000000000E+00   0.00000000000000E+00   1.32267691266618E-06
     -9.38456137089686E-20   1.32267691266609E-06  -1.47577588209389E-30   0.00000000000000E+00   1.32267691266609E-10
      0.00000000000000E+00   0.00000000000000E+00  -1.32267691278284E-06   1.16757327876550E-16  -1.32267691266608E-06
     -3.88491952699404E-27
      2.50000000000000E-01
      2.50000000000000E+00   2.49999999986615E+00   0.00000000000000E+00   0.00000000000000E+00   1.33857204436730E-06
     -6.49688355429521E-21   1.33857204436729E-06  -3.64165843692102E-29   0.00000000000000E+00   1.33857204436729E-10
      0.00000000000000E+00   0.00000000000000E+00  -1.33857204480439E-06   4.37094466486448E-16  -1.33857204436729E-06
      1.59724917232329E-26
      2.60000000000000E-01
      2.60000000000000E+00   2.59999999986444E+00   0.00000000000000E+00   0.00000000000000E+00   1.35573618738795E-06
     -1.69045343081587E-18   1.35573618738626E-06   2.91616943258839E-29   0.00000000000000E+00   1.35573618738626E-10
      0.00000000000000E+00   0.00000000000000E+00  -1.35573618720693E-06  -1.79319843230586E-16  -1.35573618738625E-06
     -2.95450331595196E-26
      2.70000000000000E-01
      2.70000000000000E+00   2.69999999986256E+00   0.00000000000000E+00   0.00000000000000E+00   1.37453785740946E-06
     -6.95541939505837E-19   1.37453785740876E-06  -1.32245244516323E-29   0.00000000000000E+00   1.37453785740876E-10
      0.00000000000000E+00   0.00000000000000E+00  -1.37453785704787E-06  -3.60871817575203E-16  -1.37453785740874E-06
     -1.98152669619219E-26
      2.80000000000000E-01
      2.80000000000000E+00   2.79999999986049E+00   0.00000000000000E+00   0.00000000000000E+00   1.39524394985048E-06
     -2.02162086742520E-19   1.39524394985028E-06  -2.93340697875220E-31   0.00000000000000E+00   1.39524394985027E-10
      0.00000000000000E+00   0.00000000000000E+00  -1.39524394925808E-06  -5.92201725342492E-16  -1.39524394985028E-06
      7.36407326555400E-27
      2.90000000000000E-01
      2.90000000000000E+00   2.89999999985818E+00   0.00000000000000E+00   0.00000000000000E+00   1.41813056848718E-06
      2.78210798982691E-16   1.41813056876539E-06  -2.55841474641686E-30   0.00000000000000E+00   1.41813056876539E-10
      0.00000000000000E+00   0.00000000000000E+00  -1.41813063550261E-06   6.67372254438156E-14  -1.41813056876539E-06
      9.73644347863805E-27
      3.00000000000000E-01
      3.00000000000000E+00   2.99999999985564E+00   0.00000000000000E+00   0.00000000000000E+00   1.44349438524690E-06
      3.06269481919105E-16   1.44349438555317E-06  -2.36093899825963E-29   0.00000000000000E+00   1.44349438555317E-10
      0.00000000000000E+00   0.00000000000000E+00  -1.44349446300979E-06   7.74566239448745E-14  -1.44349438555316E-06
     -5.38798516638304E-27
      3.10000000000000E-01
      3.10000000000000E+00   3.09999999985282E+00   0.00000000000000E+00   0.00000000000000E+00   1.47168336644975E-06
      3.20450513014990E-16   1.47168336677020E-06  -8.18329823144685E-30   0.00000000000000E+00   1.47168336677020E-10
      0.00000000000000E+00   0.00000000000000E+00  -1.47168338840103E-06   2.16308318901986E-14  -1.47168336677020E-06
     -3.74537403047080E-27
      3.20000000000000E-01
      3.20000000000000E+00   3.19999999984970E+00   0.00000000000000E+00   0.00000000000000E+00   1.50312801656954E-06
      3.40203723654221E-16   1.50312801690975E-06  -2.67575102556695E-29   0.00000000000000E+00   1.50312801690975E-10
      0.00000000000000E+00   0.00000000000000E+00  -1.50312799273870E-06  -2.41710576393733E-14  -1.50312801690976E-06
     -3.26190017427795E-27
      3.30000000000000E-01
      3.30000000000000E+00   3.29999999984616E+00   0.00000000000000E+00   0.00000000000000E+00   1.53832273747542E-06
      3.70492461296847E-16   1.53832273784591E-06  -2.30680705504348E-29   0.00000000000000E+00   1.53832273784592E-10
      0.00000000000000E+00   0.00000000000000E+00  -1.53832268850342E-06  -4.93424932564660E-14  -1.53832273784591E-06
     -4.88864067119586E-27
      3.40000000000000E-01
      3.40000000000000E+00   3.39999999984223E+00   0.00000000000000E+00   0.00000000000000E+00   1.57780894223902E-06
      4.01924703234487E-16   1.57780894264094E-06  -1.75097179453353E-29   0.00000000000000E+00   1.57780894264095E-10
      0.00000000000000E+00   0.00000000000000E+00  -1.57780888620780E-06  -5.64331212148324E-14  -1.57780894264093E-06
     -1.44452814226909E-26
      3.50000000000000E-01
      3.50000000000000E+00   3.49999999983777E+00   0.00000000000000E+00   0.00000000000000E+00   1.62220338488613E-06
      4.29252513840828E-16   1.62220338531538E-06  -1.65480443172495E-29   0.00000000000000E+00   1.62220338531538E-10
      0.00000000000000E+00   0.00000000000000E+00  -1.62220333292169E-06  -5.23936760938957E-14  -1.62220338531537E-06
     -1.62674049691792E-27
      3.60000000000000E-01
      3.60000000000000E+00   3.59999999983277E+00   0.00000000000000E+00   0.00000000000000E+00   1.67224382653434E-06
      4.58046854181335E-16   1.67224382699239E-06   2.10177097962142E-30   0.00000000000000E+00   1.67224382699238E-10
      0.00000000000000E+00   0.00000000000000E+00  -1.67224378805517E-06  -3.89372180287839E-14  -1.67224382699239E-06
     -4.24733137476070E-27
      3.70000000000000E-01
      3.70000000000000E+00   3.69999999982710E+00   0.00000000000000E+00   0.00000000000000E+00   1.72881982426922E-06
      4.91488246658487E-16   1.72881982476071E-06   1.28041702557080E-29   0.00000000000000E+00   1.72881982476071E-10
      0.00000000000000E+00   0.00000000000000E+00  -1.72881980891067E-06  -1.58500561871001E-14  -1.72881982476072E-06
     -1.28874427243337E-26
      3.80000000000000E-01
      3.80000000000000E+00   3.79999999982071E+00   0.00000000000000E+00   0.00000000000000E+00   1.79299754853569E-06
      5.21444236826096E-16   1.79299754905713E-06   1.33243207715280E-29   0.00000000000000E+00   1.79299754905714E-10
      0.00000000000000E+00   0.00000000000000E+00  -1.79299756333990E-06   1.42827594337249E-14  -1.79299754905714E-06
     -5.60330328688527E-27
      3.90000000000000E-01
      3.90000000000000E+00   3.89999999981342E+00   0.00000000000000E+00   0.00000000000000E+00   1.86605759140864E-06
      5.39739651146054E-16   1.86605759194838E-06   7.27001069785596E-30   0.00000000000000E+00   1.86605759194839E-10
      0.00000000000000E+00   0.00000000000000E+00  -1.86605763816641E-06   4.62180139169423E-14  -1.86605759194839E-06
     -1.68383608842188E-29
      4.00000000000000E-01
      4.00000000000000E+00   3.99999999980506E+00   0.00000000000000E+00   0.00000000000000E+00   1.94955375853526E-06
      5.47862800606591E-16   1.94955375908312E-06   6.43444332854747E-29   0.00000000000000E+00   1.94955375908313E-10
      0.00000000000000E+00   0.00000000000000E+00  -1.94955383313611E-06   7.40529798489646E-14  -1.94955375908313E-06
     -4.14678507040034E-27
      4.10000000000000E-01
      4.10000000000000E+00   4.09999999979544E+00   0.00000000000000E+00   0.00000000000000E+00   2.04538991197215E-06
      5.52644852936769E-16   2.04538991252480E-06   1.88524320675682E-29   0.00000000000000E+00   2.04538991252480E-10
      0.00000000000000E+00   0.00000000000000E+00  -2.04539000420441E-06   9.16796211345470E-14  -2.04538991252479E-06
     -5.95177993943740E-27
      4.20000000000000E-01
      4.20000000000000E+00   4.19999999978442E+00   0.00000000000000E+00   0.00000000000000E+00   2.15590639548070E-06
      5.60457872571974E-16   2.15590639604116E-06  -2.03796181750629E-29   0.00000000000000E+00   2.15590639604116E-10
      0.00000000000000E+00   0.00000000000000E+00  -2.15590649195501E-06   9.59138268355815E-14  -2.15590639604119E-06
     -1.15799536788930E-26
      4.30000000000000E-01
      4.30000000000000E+00   4.29999999977159E+00   0.00000000000000E+00   0.00000000000000E+00   2.28397367216789E-06
      5.72506015788277E-16   2.28397367274040E-06  -2.64853384741358E-29   0.00000000000000E+00   2.28397367274039E-10
      0.00000000000000E+00   0.00000000000000E+00  -2.28397374178306E-06   6.90426524000056E-14  -2.28397367274041E-06
     -1.29465705318065E-26
      4.40000000000000E-01
      4.40000000000000E+00   4.39999999975671E+00   0.00000000000000E+00   0.00000000000000E+00   2.43310427731838E-06
      5.83815939219136E-16   2.43310427790219E-06  -2.67302930775161E-29   0.00000000000000E+00   2.43310427790219E-10
      0.00000000000000E+00   0.00000000000000E+00  -2.43310427538885E-06  -2.51334349164549E-15  -2.43310427790220E-06
     -1.05791357003609E-26
      4.50000000000000E-01
      4.50000000000000E+00   4.49999999973923E+00   0.00000000000000E+00   0.00000000000000E+00   2.60760166312621E-06
      5.89516435756727E-16   2.60760166371572E-06   2.07999723709872E-29   0.00000000000000E+00   2.60760166371573E-10
      0.00000000000000E+00   0.00000000000000E+00  -2.60760160072188E-06  -6.29938311290274E-14  -2.60760166371571E-06
      2.22198623139395E-27
      4.60000000000000E-01
      4.60000000000000E+00   4.59999999971873E+00   0.00000000000000E+00   0.00000000000000E+00   2.81277573224608E-06
      5.91011593173027E-16   2.81277573283709E-06  -8.61877308190078E-31   0.00000000000000E+00   2.81277573283710E-10
      0.00000000000000E+00   0.00000000000000E+00  -2.81277566249369E-06  -7.03433844233383E-14  -2.81277573283708E-06
     -2.84371851399648E-26
      4.70000000000000E-01
      4.70000000000000E+00   4.69999999969446E+00   0.00000000000000E+00   0.00000000000000E+00   3.05524339435447E-06
      5.92239362132796E-16   3.05524339494671E-06   4.46059308624689E-29   0.00000000000000E+00   3.05524339494670E-10
      0.00000000000000E+00   0.00000000000000E+00  -3.05524339568230E-06   7.35594412499328E-16  -3.05524339494671E-06
     -1.07691962795368E-26
      4.80000000000000E-01
      4.80000000000000E+00   4.79999999966569E+00   0.00000000000000E+00   0.00000000000000E+00   3.34334199904357E-06
      5.98884226281604E-16   3.34334199964246E-06   3.35164428304233E-29   0.00000000000000E+00   3.34334199964246E-10
      0.00000000000000E+00   0.00000000000000E+00  -3.34334204777943E-06   4.81370135194075E-14  -3.34334199964242E-06
      1.99389418194508E-27
      4.90000000000000E-01
      4.90000000000000E+00   4.89999999963122E+00   0.00000000000000E+00   0.00000000000000E+00   3.68769673401975E-06
      6.20750880188641E-16   3.68769673464050E-06   3.25033589769367E-29   0.00000000000000E+00   3.68769673464048E-10
      0.00000000000000E+00   0.00000000000000E+00  -3.68769679058374E-06   5.59432529040707E-14  -3.68769673464048E-06
      5.23073035927468E-27
      5.00000000000000E-01
      5.00000000000000E+00   4.99999999958978E+00   0.00000000000000E+00   0.00000000000000E+00   4.10200770241588E-06
      6.66370445495945E-16   4.10200770308226E-06  -2.67847274338229E-29   0.00000000000000E+00   4.10200770308226E-10
      0.00000000000000E+00   0.00000000000000E+00  -4.10200775290908E-06   4.98268449994874E-14  -4.10200770308224E-06
      1.00283084006312E-26
      5.10000000000000E-01
      5.10000000000000E+00   5.09999999953961E+00   0.00000000000000E+00   0.00000000000000E+00   4.60416244851670E-06
      7.32389528504914E-16   4.60416244924909E-06   8.61574895099485E-30   0.00000000000000E+00   4.60416244924908E-10
      0.00000000000000E+00   0.00000000000000E+00  -4.60416249488743E-06   4.56383750308761E-14  -4.60416244924905E-06
      1.44527328812431E-26
      5.20000000000000E-01
      5.20000000000000E+00   5.19999999947820E+00   0.00000000000000E+00   0.00000000000000E+00   5.21784424620517E-06
      8.06235169687195E-16   5.21784424701140E-06  -7.09158697440608E-30   0.00000000000000E+00   5.21784424701144E-10
      0.00000000000000E+00   0.00000000000000E+00  -5.21784429358526E-06   4.65738449864397E-14  -5.21784424701141E-06
      1.97773322638379E-27
      5.30000000000000E-01
      5.30000000000000E+00   5.29999999940249E+00   0.00000000000000E+00   0.00000000000000E+00   5.97492399728102E-06
      8.79029916428832E-16   5.97492399816005E-06   9.73770151709491E-31   0.00000000000000E+00   5.97492399816008E-10
      0.00000000000000E+00   0.00000000000000E+00  -5.97492405085757E-06   5.26975060238526E-14  -5.97492399816006E-06
      2.53310881899604E-27
      5.40000000000000E-01
      5.40000000000000E+00   5.39999999930811E+00   0.00000000000000E+00   0.00000000000000E+00   6.91914432374005E-06
      9.48458078588117E-16   6.91914432468851E-06  -1.13828287299209E-29   0.00000000000000E+00   6.91914432468854E-10
      0.00000000000000E+00   0.00000000000000E+00  -6.91914438660690E-06   6.19181765654812E-14  -6.91914432468873E-06
      7.32352571836729E-27
      5.50000000000000E-01
      5.50000000000000E+00   5.49999999918880E+00   0.00000000000000E+00   0.00000000000000E+00   8.11202101740809E-06
      1.01458287255263E-15   8.11202101842267E-06  -1.41529326397529E-29   0.00000000000000E+00   8.11202101842271E-10
      0.00000000000000E+00   0.00000000000000E+00  -8.11202109128910E-06   7.28664233432748E-14  -8.11202101842267E-06
     -1.44985061266353E-26
      5.60000000000000E-01
      5.60000000000000E+00   5.59999999903575E+00   0.00000000000000E+00   0.00000000000000E+00   9.64269724566142E-06
      1.07974600300057E-15   9.64269724674116E-06  -5.80633133938579E-31   0.00000000000000E+00   9.64269724674115E-10
      0.00000000000000E+00   0.00000000000000E+00  -9.64269733101222E-06   8.42710860874982E-14  -9.64269724674113E-06
      6.28380531986128E-27
      5.70000000000000E-01
      5.70000000000000E+00   5.69999999883551E+00   0.00000000000000E+00   0.00000000000000E+00   1.16451844294773E-05
      1.16028305918211E-15   1.16451844306376E-05   1.97959609102184E-29   0.00000000000000E+00   1.16451844306375E-09
      0.00000000000000E+00   0.00000000000000E+00  -1.16451845237329E-05   9.30954348012225E-14  -1.16451844306375E-05
     -1.75215725384865E-27
      5.80000000000000E-01
      5.80000000000000E+00   5.79999999856700E+00   0.00000000000000E+00   0.00000000000000E+00   1.43303035645293E-05
      1.33080223908482E-15   1.43303035658601E-05   1.33122242479043E-29   0.00000000000000E+00   1.43303035658601E-09
      0.00000000000000E+00   0.00000000000000E+00  -1.43303036560399E-05   9.01798752996715E-14  -1.43303035658600E-05
     -3.28212556177681E-27
      5.90000000000000E-01
      5.90000000000000E+00   5.89999999819508E+00   0.00000000000000E+00   0.00000000000000E+00   1.80493156270019E-05
      1.42070875534220E-19   1.80493156270020E-05   2.93522145729575E-29   0.00000000000000E+00   1.80493156270020E-09
      0.00000000000000E+00   0.00000000000000E+00  -1.80493156267178E-05  -2.84260073371300E-16  -1.80493156270021E-05
      1.02443039264563E-26
      6.00000000000000E-01
      6.00000000000000E+00   5.99999999765669E+00   0.00000000000000E+00   0.00000000000000E+00   2.34328622391318E-05
      3.99446886678886E-19   2.34328622391322E-05  -7.49984464670664E-31   0.00000000000000E+00   2.34328622391323E-09
      0.00000000000000E+00   0.00000000000000E+00  -2.34328622391330E-05   7.54317937166119E-19  -2.34328622391322E-05
      1.01285643884246E-26
      6.10000000000000E-01
      6.10000000000000E+00   6.09999999682681E+00   0.00000000000000E+00   0.00000000000000E+00   3.17323743070838E-05
      2.23854516809238E-18   3.17323743070861E-05   1.19574136020476E-29   0.00000000000000E+00   3.17323743070861E-09
      0.00000000000000E+00   0.00000000000000E+00  -3.17323743087330E-05   1.64685427235349E-15  -3.17323743070862E-05
      2.14742325977734E-26
      6.20000000000000E-01
      6.20000000000000E+00   6.19999999541981E+00   0.00000000000000E+00   0.00000000000000E+00   4.58018536304713E-05
      3.07881637108930E-17   4.58018536305020E-05   2.90195601733052E-29   0.00000000000000E+00   4.58018536305024E-09
      0.00000000000000E+00   0.00000000000000E+00  -4.58018536480076E-05   1.75054680485279E-14  -4.58018536305022E-05
     -1.64701427051127E-26
      6.30000000000000E-01
      6.30000000000000E+00   6.29999999263956E+00   0.00000000000000E+00   0.00000000000000E+00   7.36048015149239E-05
      7.74572374858179E-16   7.36048015156985E-05  -9.71350846984748E-30   0.00000000000000E+00   7.36048015156984E-09
      0.00000000000000E+00   0.00000000000000E+00  -7.36048018979087E-05   3.82211045031053E-13  -7.36048015156977E-05
     -5.22066605161974E-27
      6.40000000000000E-01
      6.40000000000000E+00   6.39999998545285E+00   0.00000000000000E+00   0.00000000000000E+00   1.45471728505625E-04
      1.35643641660688E-16   1.45471728505761E-04  -1.12497669700600E-29   0.00000000000000E+00   1.45471728505761E-08
      0.00000000000000E+00   0.00000000000000E+00  -1.45471728661148E-04   1.55389341328461E-13  -1.45471728505759E-04
     -5.07260460246540E-27
      6.42500000000000E-01
      6.42500000000000E+00   6.42499998162037E+00   0.00000000000000E+00   0.00000000000000E+00   1.83796409611547E-04
     -7.90821344574757E-17   1.83796409611468E-04  -1.04937342435774E-29   0.00000000000000E+00   1.83796409611468E-08
      0.00000000000000E+00   0.00000000000000E+00  -1.83796409518828E-04  -9.26383519598911E-14  -1.83796409611466E-04
     -5.96213456365931E-28
      6.44750000000000E-01
      6.44750000000000E+00   6.44749997522783E+00   0.00000000000000E+00   0.00000000000000E+00   2.47722110239532E-04
      1.18164168112425E-15   2.47722110240714E-04  -3.21313908755073E-29   0.00000000000000E+00   2.47722110240715E-08
      0.00000000000000E+00   0.00000000000000E+00  -2.47722112765106E-04   2.52439359567953E-12  -2.47722110240712E-04
     -2.08640839461929E-28
      6.45725000000000E-01
      6.45725000000000E+00   6.45724996955846E+00   0.00000000000000E+00   0.00000000000000E+00   3.04415567934884E-04
      6.86198284968845E-16   3.04415567935571E-04   4.03570269396372E-29   0.00000000000000E+00   3.04415567935571E-08
      0.00000000000000E+00   0.00000000000000E+00  -3.04415569009515E-04   1.07394336276135E-12  -3.04415567935572E-04
     -8.43901874085229E-27
      6.47415000000000E-01
      6.47415000000000E+00   6.47414995601867E+00   0.00000000000000E+00   0.00000000000000E+00   4.39813215937262E-04
     -1.24804299193603E-14   4.39813215924782E-04   5.29495080319301E-29   0.00000000000000E+00   4.39813215924783E-08
      0.00000000000000E+00   0.00000000000000E+00  -4.39813191072767E-04  -2.48520134034451E-11  -4.39813215924780E-04
      8.55350024042718E-27
      6.50569666666667E-01
      6.50569666666667E+00   6.50569659490243E+00   0.00000000000000E+00   0.00000000000000E+00   7.17642473384899E-04
      3.95015279414994E-15   7.17642473388849E-04  -2.79218006544526E-29   0.00000000000000E+00   7.17642473388848E-08
      0.00000000000000E+00   0.00000000000000E+00  -7.17642485039309E-04   1.16504616833246E-11  -7.17642473388847E-04
      6.54199352008597E-27
      6.56248066666667E-01
      6.56248066666667E+00   6.56248054377272E+00   0.00000000000000E+00   0.00000000000000E+00   1.22893953425425E-03
      8.63371191168630E-16   1.22893953425511E-03   3.44629958039794E-29   0.00000000000000E+00   1.22893953425511E-07
      0.00000000000000E+00   0.00000000000000E+00  -1.22893953879500E-03   4.53990022424036E-12  -1.22893953425510E-03
     -7.05856346491332E-28
      6.66248066666667E-01
      6.66248066666667E+00   6.66248045258996E+00   0.00000000000000E+00   0.00000000000000E+00   2.14076683112182E-03
      1.59640368203107E-15   2.14076683112342E-03  -1.52839575985707E-29   0.00000000000000E+00   2.14076683112341E-07
      0.00000000000000E+00   0.00000000000000E+00  -2.14076684053811E-03   9.41470244738019E-12  -2.14076683112341E-03
     -1.17354665865996E-26
      6.76248066666667E-01