DF-ISE text

Info {
  version   = 1.0
  type      = xyplot
  datasets  = [
    "time"
    "ntype OuterVoltage" "ntype InnerVoltage" "ntype QuasiFermiPotential" "ntype DisplacementCurrent" "ntype eCurrent"
    "ntype hCurrent" "ntype TotalCurrent" "ntype Charge" "ptype OuterVoltage" "ptype InnerVoltage"
    "ptype QuasiFermiPotential" "ptype DisplacementCurrent" "ptype eCurrent" "ptype hCurrent" "ptype TotalCurrent"
    "ptype Charge" ]
  functions = [
    Time
    OuterVoltage InnerVoltage QuasiFermiPotential DisplacementCurrent eCurrent
    hCurrent TotalCurrent Charge OuterVoltage InnerVoltage
    QuasiFermiPotential DisplacementCurrent eCurrent hCurrent TotalCurrent
    Charge ]
}

Data {
      1.00000000000000E-02
      1.00000000000000E-01   9.99999999293577E-02   0.00000000000000E+00   0.00000000000000E+00   7.06416707789830E-07
     -4.17127988667834E-17   7.06416707748117E-07   1.24053140654232E-13   0.00000000000000E+00   7.06416707748224E-11
      0.00000000000000E+00   0.00000000000000E+00  -7.06416707629332E-07  -1.18783204720790E-16  -7.06416707748115E-07
     -1.24069369684136E-13
      2.00000000000000E-02
      2.00000000000000E-01   1.99999999928574E-01   0.00000000000000E+00   0.00000000000000E+00   7.14251707184763E-07
     -2.86931511530041E-17   7.14251707156070E-07   1.34514438345188E-13   0.00000000000000E+00   7.14251707156095E-11
      0.00000000000000E+00   0.00000000000000E+00  -7.14251707100923E-07  -5.51457907742670E-17  -7.14251707156069E-07
     -1.34530667537422E-13
      3.00000000000000E-02
      3.00000000000000E-01   2.99999999927852E-01   0.00000000000000E+00   0.00000000000000E+00   7.21470475223486E-07
     -1.36778579887438E-17   7.21470475209809E-07   1.44349570995765E-13   0.00000000000000E+00   7.21470475209813E-11
      0.00000000000000E+00   0.00000000000000E+00  -7.21470475184485E-07  -2.53205296681107E-17  -7.21470475209806E-07
     -1.44365800332658E-13
      4.00000000000000E-02
      4.00000000000000E-01   3.99999999927183E-01   0.00000000000000E+00   0.00000000000000E+00   7.28150378372947E-07
     -8.58467485871872E-18   7.28150378364363E-07   1.53659217141296E-13   0.00000000000000E+00   7.28150378364363E-11
      0.00000000000000E+00   0.00000000000000E+00  -7.28150378413521E-07   4.91595255906863E-17  -7.28150378364361E-07
     -1.53675446605106E-13
      5.00000000000000E-02
      5.00000000000000E-01   4.99999999926554E-01   0.00000000000000E+00   0.00000000000000E+00   7.34449216305807E-07
     -7.28586877353957E-18   7.34449216298521E-07   1.62518967317978E-13   0.00000000000000E+00   7.34449216298519E-11
      0.00000000000000E+00   0.00000000000000E+00  -7.34449216488617E-07   1.90094131749035E-16  -7.34449216298523E-07
     -1.62535196891636E-13
      6.00000000000000E-02
      6.00000000000000E-01   5.99999999925952E-01   0.00000000000000E+00   0.00000000000000E+00   7.40512518329744E-07
     -6.38312443422019E-18   7.40512518323361E-07   1.70987405364474E-13   0.00000000000000E+00   7.40512518323365E-11
      0.00000000000000E+00   0.00000000000000E+00  -7.40512518423508E-07   1.00139845547645E-16  -7.40512518323369E-07
     -1.71003635032153E-13
      7.00000000000000E-02
      7.00000000000000E-01   6.99999999925365E-01   0.00000000000000E+00   0.00000000000000E+00   7.46379994060095E-07
     -5.43897041103832E-18   7.46379994054656E-07   1.79111075162036E-13   0.00000000000000E+00   7.46379994054653E-11
      0.00000000000000E+00   0.00000000000000E+00  -7.46379993983063E-07  -7.15902320854679E-17  -7.46379994054654E-07
     -1.79127304909468E-13
      8.00000000000000E-02
      8.00000000000000E-01   7.99999999924799E-01   0.00000000000000E+00   0.00000000000000E+00   7.52053739425548E-07
     -4.74242216406647E-18   7.52053739420805E-07   1.86927652473277E-13   0.00000000000000E+00   7.52053739420802E-11
      0.00000000000000E+00   0.00000000000000E+00  -7.52053739599108E-07   1.78316655266783E-16  -7.52053739420792E-07
     -1.86943882287988E-13
      9.00000000000000E-02
      9.00000000000000E-01   8.99999999924240E-01   0.00000000000000E+00   0.00000000000000E+00   7.57596990676725E-07
     -4.28462767089785E-18   7.57596990672440E-07   1.94468055273712E-13   0.00000000000000E+00   7.57596990672439E-11
      0.00000000000000E+00   0.00000000000000E+00  -7.57596990895078E-07   2.22648475501270E-16  -7.57596990672429E-07
     -1.94484285145030E-13
      1.00000000000000E-01
      1.00000000000000E+00   9.99999999923679E-01   0.00000000000000E+00   0.00000000000000E+00   7.63151541993499E-07
     -3.77392936587785E-18   7.63151541989725E-07   2.01757926953177E-13   0.00000000000000E+00   7.63151541989727E-11
      0.00000000000000E+00   0.00000000000000E+00  -7.63151542124227E-07   1.34516474206006E-16  -7.63151541989711E-07
     -2.01774156872149E-13
      1.10000000000000E-01
      1.10000000000000E+00   1.09999999992311E+00   0.00000000000000E+00   0.00000000000000E+00   7.68853536102590E-07
     -3.34113101822004E-18   7.68853536099249E-07   2.08818760724699E-13   0.00000000000000E+00   7.68853536099248E-11
      0.00000000000000E+00   0.00000000000000E+00  -7.68853536022999E-07  -7.62343080550988E-17  -7.68853536099234E-07
     -2.08834990683956E-13
      1.20000000000000E-01
      1.20000000000000E+00   1.19999999992251E+00   0.00000000000000E+00   0.00000000000000E+00   7.74804165276471E-07
     -2.83561094041564E-18   7.74804165273636E-07   2.15668821479163E-13   0.00000000000000E+00   7.74804165273635E-11
      0.00000000000000E+00   0.00000000000000E+00  -7.74804165409807E-07   1.36172780272898E-16  -7.74804165273634E-07
     -2.15685051472727E-13
      1.30000000000000E-01
      1.30000000000000E+00   1.29999999992189E+00   0.00000000000000E+00   0.00000000000000E+00   7.81059036917254E-07
     -2.55381372980484E-18   7.81059036914700E-07   2.22323929994244E-13   0.00000000000000E+00   7.81059036914698E-11
      0.00000000000000E+00   0.00000000000000E+00  -7.81059036699763E-07  -2.14931253260937E-16  -7.81059036914694E-07
     -2.22340160017298E-13
      1.40000000000000E-01
      1.40000000000000E+00   1.39999999992124E+00   0.00000000000000E+00   0.00000000000000E+00   7.87591531870081E-07
     -2.56414729980381E-18   7.87591531867517E-07   2.28798033808403E-13   0.00000000000000E+00   7.87591531867515E-11
      0.00000000000000E+00   0.00000000000000E+00  -7.87591531517697E-07  -3.49811732044478E-16  -7.87591531867508E-07
     -2.28814263857097E-13
      1.50000000000000E-01
      1.50000000000000E+00   1.49999999992057E+00   0.00000000000000E+00   0.00000000000000E+00   7.94377836779628E-07
     -3.15434889006049E-18   7.94377836776474E-07   2.35103218899614E-13   0.00000000000000E+00   7.94377836776475E-11
      0.00000000000000E+00   0.00000000000000E+00  -7.94377837028011E-07   2.51535287395019E-16  -7.94377836776475E-07
     -2.35119448970872E-13
      1.60000000000000E-01
      1.60000000000000E+00   1.59999999991986E+00   0.00000000000000E+00   0.00000000000000E+00   8.01405812224547E-07
     -7.46789127732761E-18   8.01405812217079E-07   2.41248225652377E-13   0.00000000000000E+00   8.01405812217078E-11
      0.00000000000000E+00   0.00000000000000E+00  -8.01405812299651E-07   8.25746943782865E-17  -8.01405812217076E-07
     -2.41264455743704E-13
      1.70000000000000E-01
      1.70000000000000E+00   1.69999999991912E+00   0.00000000000000E+00   0.00000000000000E+00   8.08719633360535E-07
     -5.58324390304705E-17   8.08719633304702E-07   2.47232707838421E-13   0.00000000000000E+00   8.08719633304204E-11
      0.00000000000000E+00   0.00000000000000E+00  -8.08719633114649E-07  -1.90047200313592E-16  -8.08719633304696E-07
     -2.47248937947745E-13
      1.80000000000000E-01
      1.80000000000000E+00   1.79999999991836E+00   0.00000000000000E+00   0.00000000000000E+00   8.16338409130839E-07
     -2.18977013984845E-20   8.16338409130817E-07   2.53027606713714E-13   0.00000000000000E+00   8.16338409130816E-11
      0.00000000000000E+00   0.00000000000000E+00  -8.16338409150286E-07   1.94746838286006E-17  -8.16338409130811E-07
     -2.53043836839069E-13
      1.90000000000000E-01
      1.90000000000000E+00   1.89999999991758E+00   0.00000000000000E+00   0.00000000000000E+00   8.24228072019778E-07
     -9.09749851318930E-18   8.24228072010680E-07   2.58514511364755E-13   0.00000000000000E+00   8.24228072010656E-11
      0.00000000000000E+00   0.00000000000000E+00  -8.24228071650935E-07  -3.59742634366607E-16  -8.24228072010678E-07
     -2.58530741503876E-13
      2.00000000000000E-01
      2.00000000000000E+00   1.99999999991676E+00   0.00000000000000E+00   0.00000000000000E+00   8.32304620917297E-07
     -8.45236503734398E-18   8.32304620908844E-07   2.63512128274080E-13   0.00000000000000E+00   8.32304620908823E-11
      0.00000000000000E+00   0.00000000000000E+00  -8.32304620827962E-07  -8.08879030771306E-17  -8.32304620908850E-07
     -2.63528358424496E-13
      2.10000000000000E-01
      2.10000000000000E+00   2.09999999991592E+00   0.00000000000000E+00   0.00000000000000E+00   8.40763812158361E-07
      2.16288261964235E-22   8.40763812158361E-07   2.68261311924990E-13   0.00000000000000E+00   8.40763812158359E-11
      0.00000000000000E+00   0.00000000000000E+00  -8.40763812215088E-07   5.67231814598296E-17  -8.40763812158365E-07
     -2.68277542085642E-13
      2.20000000000000E-01
      2.20000000000000E+00   2.19999999991504E+00   0.00000000000000E+00   0.00000000000000E+00   8.49605993452223E-07
     -3.10866717549571E-19   8.49605993451912E-07   2.72956734949869E-13   0.00000000000000E+00   8.49605993451911E-11
      0.00000000000000E+00   0.00000000000000E+00  -8.49605993154223E-07  -2.97683217616217E-16  -8.49605993451906E-07
     -2.72972965120349E-13
      2.30000000000000E-01
      2.30000000000000E+00   2.29999999991410E+00   0.00000000000000E+00   0.00000000000000E+00   8.59100607124420E-07
     -1.40253892120041E-20   8.59100607124406E-07   2.77623171900475E-13   0.00000000000000E+00   8.59100607124408E-11
      0.00000000000000E+00   0.00000000000000E+00  -8.59100607145165E-07   2.07532233260219E-17  -8.59100607124412E-07
     -2.77639402080569E-13
      2.40000000000000E-01
      2.40000000000000E+00   2.39999999991307E+00   0.00000000000000E+00   0.00000000000000E+00   8.69434234576261E-07
     -1.10832207945730E-20   8.69434234576250E-07   2.82267334710381E-13   0.00000000000000E+00   8.69434234576256E-11
      0.00000000000000E+00   0.00000000000000E+00  -8.69434234594041E-07   1.77792549654240E-17  -8.69434234576262E-07
     -2.82283564899875E-13
      2.50000000000000E-01
      2.50000000000000E+00   2.49999999991194E+00   0.00000000000000E+00   0.00000000000000E+00   8.80710763950983E-07
      2.77877921761719E-16   8.80710764228861E-07   2.86893258022710E-13   0.00000000000000E+00   8.80710764228966E-11
      0.00000000000000E+00   0.00000000000000E+00  -8.80710738280481E-07  -2.59483838442315E-14  -8.80710764228865E-07
     -2.86909488221463E-13
      2.60000000000000E-01
      2.60000000000000E+00   2.59999999991071E+00   0.00000000000000E+00   0.00000000000000E+00   8.93040985238039E-07
      2.58054888897157E-16   8.93040985496094E-07   2.91503743755550E-13   0.00000000000000E+00   8.93040985496137E-11
      0.00000000000000E+00   0.00000000000000E+00  -8.93040967601388E-07  -1.78946977810025E-14  -8.93040985496086E-07
     -2.91519973963444E-13
      2.70000000000000E-01
      2.70000000000000E+00   2.69999999990933E+00   0.00000000000000E+00   0.00000000000000E+00   9.06551096510579E-07
      2.54014084455596E-16   9.06551096764594E-07   2.96100807875732E-13   0.00000000000000E+00   9.06551096764609E-11
      0.00000000000000E+00   0.00000000000000E+00  -9.06551081951312E-07  -1.48132784150367E-14  -9.06551096764591E-07
     -2.96117038092667E-13
      2.80000000000000E-01
      2.80000000000000E+00   2.79999999990784E+00   0.00000000000000E+00   0.00000000000000E+00   9.21411476066729E-07
      2.59318338602075E-16   9.21411476326048E-07   3.00685927748437E-13   0.00000000000000E+00   9.21411476326056E-11
      0.00000000000000E+00   0.00000000000000E+00  -9.21411439148022E-07  -3.71780368668389E-14  -9.21411476326058E-07
     -3.00702157974330E-13
      2.90000000000000E-01
      2.90000000000000E+00   2.89999999990622E+00   0.00000000000000E+00   0.00000000000000E+00   9.37855866884683E-07
      2.69159376822387E-16   9.37855867153843E-07   3.05260200163389E-13   0.00000000000000E+00   9.37855867153867E-11
      0.00000000000000E+00   0.00000000000000E+00  -9.37855735808388E-07  -1.31345454396029E-13  -9.37855867153842E-07
     -3.05276430398154E-13
      3.00000000000000E-01
      3.00000000000000E+00   2.99999999990437E+00   0.00000000000000E+00   0.00000000000000E+00   9.56155079527263E-07
      2.83279892636259E-16   9.56155079810543E-07   3.09824446879937E-13   0.00000000000000E+00   9.56155079810595E-11
      0.00000000000000E+00   0.00000000000000E+00  -9.56154665007811E-07  -4.14802734644723E-13  -9.56155079810546E-07
     -3.09840677123530E-13
      3.10000000000000E-01
      3.10000000000000E+00   3.09999999990234E+00   0.00000000000000E+00   0.00000000000000E+00   9.76601722921609E-07
      3.01103459801533E-16   9.76601723222713E-07   3.14379285679360E-13   0.00000000000000E+00   9.76601723222797E-11
      0.00000000000000E+00   0.00000000000000E+00  -9.76601019337668E-07  -7.03885035421704E-13  -9.76601723222703E-07
     -3.14395515931733E-13
      3.20000000000000E-01
      3.20000000000000E+00   3.19999999990004E+00   0.00000000000000E+00   0.00000000000000E+00   9.99523510525887E-07
      3.20805922153410E-16   9.99523510846693E-07   3.18925178805624E-13   0.00000000000000E+00   9.99523510846832E-11
      0.00000000000000E+00   0.00000000000000E+00  -9.99522909865136E-07  -6.00981550876354E-13  -9.99523510846687E-07
     -3.18941409066714E-13
      3.30000000000000E-01
      3.30000000000000E+00   3.29999999989746E+00   0.00000000000000E+00   0.00000000000000E+00   1.02529328997884E-06
      3.42491222740661E-16   1.02529329032134E-06   3.23462467677130E-13   0.00000000000000E+00   1.02529329032153E-10
      0.00000000000000E+00   0.00000000000000E+00  -1.02529307966679E-06  -2.10654522854068E-13  -1.02529329032132E-06
     -3.23478697946880E-13
      3.40000000000000E-01
      3.40000000000000E+00   3.39999999989457E+00   0.00000000000000E+00   0.00000000000000E+00   1.05432534178919E-06
      3.67546593634576E-16   1.05432534215673E-06   3.27991399394167E-13   0.00000000000000E+00   1.05432534215696E-10
      0.00000000000000E+00   0.00000000000000E+00  -1.05432534710777E-06   4.95104215582761E-15  -1.05432534215673E-06
     -3.28007629672553E-13
      3.50000000000000E-01
      3.50000000000000E+00   3.49999999989130E+00   0.00000000000000E+00   0.00000000000000E+00   1.08707551159744E-06
      3.94139477788541E-16   1.08707551199158E-06   3.32512147979963E-13   0.00000000000000E+00   1.08707551199177E-10
      0.00000000000000E+00   0.00000000000000E+00  -1.08707554314750E-06   3.11559205918389E-14  -1.08707551199158E-06
     -3.32528378266915E-13
      3.60000000000000E-01
      3.60000000000000E+00   3.59999999988758E+00   0.00000000000000E+00   0.00000000000000E+00   1.12406371949991E-06
      4.18748788705073E-16   1.12406371991865E-06   3.37024831845095E-13   0.00000000000000E+00   1.12406371991877E-10
      0.00000000000000E+00   0.00000000000000E+00  -1.12406373192999E-06   1.20113195798976E-14  -1.12406371991867E-06
     -3.37041062140599E-13
      3.70000000000000E-01
      3.70000000000000E+00   3.69999999988340E+00   0.00000000000000E+00   0.00000000000000E+00   1.16591792925167E-06
      4.40608402780214E-16   1.16591792969228E-06   3.41529528586380E-13   0.00000000000000E+00   1.16591792969232E-10
      0.00000000000000E+00   0.00000000000000E+00  -1.16591792461708E-06  -5.07519782904118E-15  -1.16591792969228E-06
     -3.41545758890371E-13
      3.80000000000000E-01
      3.80000000000000E+00   3.79999999987866E+00   0.00000000000000E+00   0.00000000000000E+00   1.21341422890437E-06
      4.60729007249773E-16   1.21341422936510E-06   3.46026288218986E-13   0.00000000000000E+00   1.21341422936510E-10
      0.00000000000000E+00   0.00000000000000E+00  -1.21341421641895E-06  -1.29461534049577E-14  -1.21341422936511E-06
     -3.46042518531402E-13
      3.90000000000000E-01
      3.90000000000000E+00   3.89999999987325E+00   0.00000000000000E+00   0.00000000000000E+00   1.26749898307115E-06
      4.79053524897024E-16   1.26749898355020E-06   3.50515145239822E-13   0.00000000000000E+00   1.26749898355019E-10
      0.00000000000000E+00   0.00000000000000E+00  -1.26749896736239E-06  -1.61878207448268E-14  -1.26749898355021E-06
     -3.50531375560628E-13
      4.00000000000000E-01
      4.00000000000000E+00   3.99999999986706E+00   0.00000000000000E+00   0.00000000000000E+00   1.32930524423575E-06
      4.95201324428955E-16   1.32930524473095E-06   3.54996129030075E-13   0.00000000000000E+00   1.32930524473096E-10
      0.00000000000000E+00   0.00000000000000E+00  -1.32930522957131E-06  -1.51596509812344E-14  -1.32930524473096E-06
     -3.55012359359195E-13
      4.10000000000000E-01
      4.10000000000000E+00   4.09999999985996E+00   0.00000000000000E+00   0.00000000000000E+00   1.40018173017344E-06
      5.07724700885839E-16   1.40018173068116E-06   3.59469271826693E-13   0.00000000000000E+00   1.40018173068120E-10
      0.00000000000000E+00   0.00000000000000E+00  -1.40018171890102E-06  -1.17801492348842E-14  -1.40018173068116E-06
     -3.59485502164046E-13
      4.20000000000000E-01
      4.20000000000000E+00   4.19999999985181E+00   0.00000000000000E+00   0.00000000000000E+00   1.48174251108273E-06
      5.15070466454172E-16   1.48174251159780E-06   3.63934613722251E-13   0.00000000000000E+00   1.48174251159786E-10
      0.00000000000000E+00   0.00000000000000E+00  -1.48174250555023E-06  -6.04757191763541E-15  -1.48174251159780E-06
     -3.63950844067768E-13
      4.30000000000000E-01
      4.30000000000000E+00   4.29999999984244E+00   0.00000000000000E+00   0.00000000000000E+00   1.57594227837393E-06
      5.17543078455335E-16   1.57594227889147E-06   3.68392204327228E-13   0.00000000000000E+00   1.57594227889153E-10
      0.00000000000000E+00   0.00000000000000E+00  -1.57594227837363E-06  -5.17853176131474E-16  -1.57594227889148E-06
     -3.68408434680781E-13
      4.40000000000000E-01
      4.40000000000000E+00   4.39999999983146E+00   0.00000000000000E+00   0.00000000000000E+00   1.68517792230936E-06
      5.18190173376792E-16   1.68517792282755E-06   3.72842101015316E-13   0.00000000000000E+00   1.68517792282758E-10
      0.00000000000000E+00   0.00000000000000E+00  -1.68517792270257E-06  -1.24976879798033E-16  -1.68517792282755E-06
     -3.72858331376792E-13
      4.50000000000000E-01
      4.50000000000000E+00   4.49999999981875E+00   0.00000000000000E+00   0.00000000000000E+00   1.81241618040092E-06
      5.20657061772191E-16   1.81241618092158E-06   3.77284363943033E-13   0.00000000000000E+00   1.81241618092160E-10
      0.00000000000000E+00   0.00000000000000E+00  -1.81241616029022E-06  -2.06313730869568E-14  -1.81241618092159E-06
     -3.77300594312272E-13
      4.60000000000000E-01
      4.60000000000000E+00   4.59999999980385E+00   0.00000000000000E+00   0.00000000000000E+00   1.96135150090913E-06
      5.26863333559131E-16   1.96135150143599E-06   3.81719048186740E-13   0.00000000000000E+00   1.96135150143601E-10
      0.00000000000000E+00   0.00000000000000E+00  -1.96135144872671E-06  -5.27092777920684E-14  -1.96135150143599E-06
     -3.81735278563557E-13
      4.70000000000000E-01
      4.70000000000000E+00   4.69999999978635E+00   0.00000000000000E+00   0.00000000000000E+00   2.13660431926594E-06
      5.37481425096236E-16   2.13660431980342E-06   3.86146193377842E-13   0.00000000000000E+00   2.13660431980344E-10
      0.00000000000000E+00   0.00000000000000E+00  -2.13660423856719E-06  -8.12362317388963E-14  -2.13660431980342E-06
     -3.86162423762022E-13
      4.80000000000000E-01
      4.80000000000000E+00   4.79999999976561E+00   0.00000000000000E+00   0.00000000000000E+00   2.34397369000160E-06
      5.51222172339937E-16   2.34397369055282E-06   3.90565811175840E-13   0.00000000000000E+00   2.34397369055283E-10
      0.00000000000000E+00   0.00000000000000E+00  -2.34397358051784E-06  -1.10034987714354E-13  -2.34397369055283E-06
     -3.90582041567077E-13
      4.90000000000000E-01
      4.90000000000000E+00   4.89999999974092E+00   0.00000000000000E+00   0.00000000000000E+00   2.59077039639468E-06
      5.63204049396159E-16   2.59077039695788E-06   3.94977870651836E-13   0.00000000000000E+00   2.59077039695778E-10
      0.00000000000000E+00   0.00000000000000E+00  -2.59077029046082E-06  -1.06497088620167E-13  -2.59077039695791E-06
     -3.94994101049769E-13
      5.00000000000000E-01
      5.00000000000000E+00   4.99999999971139E+00   0.00000000000000E+00   0.00000000000000E+00   2.88628256032046E-06
      5.69266479903084E-16   2.88628256088972E-06   3.99382281134959E-13   0.00000000000000E+00   2.88628256088948E-10
      0.00000000000000E+00   0.00000000000000E+00  -2.88628250464287E-06  -5.62469116917132E-14  -2.88628256088978E-06
     -3.99398511539100E-13
      5.10000000000000E-01
      5.10000000000000E+00   5.09999999967578E+00   0.00000000000000E+00   0.00000000000000E+00   3.24244795394002E-06
      5.70949063924459E-16   3.24244795451097E-06   4.03778871528491E-13   0.00000000000000E+00   3.24244795451056E-10
      0.00000000000000E+00   0.00000000000000E+00  -3.24244794800143E-06  -6.50957871393698E-15  -3.24244795451101E-06
     -4.03795101938227E-13
      5.20000000000000E-01
      5.20000000000000E+00   5.19999999963249E+00   0.00000000000000E+00   0.00000000000000E+00   3.67482470912004E-06
      5.73542089622565E-16   3.67482470969359E-06   4.08167364444453E-13   0.00000000000000E+00   3.67482470969300E-10
      0.00000000000000E+00   0.00000000000000E+00  -3.67482472816245E-06   1.84688328141178E-14  -3.67482470969362E-06
     -4.08183594858952E-13
      5.30000000000000E-01
      5.30000000000000E+00   5.29999999957963E+00   0.00000000000000E+00   0.00000000000000E+00   4.20399777232844E-06
      5.80484523351199E-16   4.20399777290893E-06   4.12547342166926E-13   0.00000000000000E+00   4.20399777290822E-10
      0.00000000000000E+00   0.00000000000000E+00  -4.20399779937533E-06   2.64663504730848E-14  -4.20399777290898E-06
     -4.12563572585031E-13
      5.40000000000000E-01
      5.40000000000000E+00   5.39999999951426E+00   0.00000000000000E+00   0.00000000000000E+00   4.85766178370340E-06
      5.88780508599858E-16   4.85766178429218E-06   4.16918198942012E-13   0.00000000000000E+00   4.85766178429137E-10
      0.00000000000000E+00   0.00000000000000E+00  -4.85766181440402E-06   3.01117629010347E-14  -4.85766178429226E-06
     -4.16934429362082E-13
      5.50000000000000E-01
      5.50000000000000E+00   5.49999999943259E+00   0.00000000000000E+00   0.00000000000000E+00   5.67380830434828E-06
      5.85124077764787E-16   5.67380830493341E-06   4.21279069779492E-13   0.00000000000000E+00   5.67380830493250E-10
      0.00000000000000E+00   0.00000000000000E+00  -5.67380833838133E-06   3.34478685208388E-14  -5.67380830493346E-06
     -4.21295300199154E-13
      5.60000000000000E-01
      5.60000000000000E+00   5.59999999932941E+00   0.00000000000000E+00   0.00000000000000E+00   6.70580641122847E-06
      5.38851438286177E-16   6.70580641176732E-06   4.25628717747191E-13   0.00000000000000E+00   6.70580641176641E-10
      0.00000000000000E+00   0.00000000000000E+00  -6.70580644771116E-06   3.59438033121997E-14  -6.70580641176736E-06
     -4.25644948162899E-13
      5.70000000000000E-01
      5.70000000000000E+00   5.69999999919690E+00   0.00000000000000E+00   0.00000000000000E+00   8.03087561235617E-06
     -1.20030804614986E-19   8.03087561235605E-06   4.29965345789020E-13   0.00000000000000E+00   8.03087561235605E-10
      0.00000000000000E+00   0.00000000000000E+00  -8.03087561224130E-06  -1.14763650534693E-16  -8.03087561235606E-06
     -4.29981576195271E-13
      5.80000000000000E-01
      5.80000000000000E+00   5.79999999902352E+00   0.00000000000000E+00   0.00000000000000E+00   9.76500201451714E-06
     -2.81309751952983E-20   9.76500201451711E-06   4.34286264589145E-13   0.00000000000000E+00   9.76500201451706E-10
      0.00000000000000E+00   0.00000000000000E+00  -9.76500201449261E-06  -2.44960935189889E-17  -9.76500201451710E-06
     -4.34302494977062E-13
      5.90000000000000E-01
      5.90000000000000E+00   5.89999999879093E+00   0.00000000000000E+00   0.00000000000000E+00   1.20909896848361E-05
      4.59486996072484E-19   1.20909896848366E-05   4.38587268167659E-13   0.00000000000000E+00   1.20909896848365E-09
      0.00000000000000E+00   0.00000000000000E+00  -1.20909896850440E-05   2.07466730943191E-16  -1.20909896848365E-05
     -4.38603498522098E-13
      6.00000000000000E-01
      6.00000000000000E+00   5.99999999846844E+00   0.00000000000000E+00   0.00000000000000E+00   1.53161262926893E-05
      2.79251206142858E-18   1.53161262926921E-05   4.42861357684777E-13   0.00000000000000E+00   1.53161262926921E-09
      0.00000000000000E+00   0.00000000000000E+00  -1.53161262932212E-05   5.29064639292394E-16  -1.53161262926921E-05
     -4.42877587978197E-13
      6.10000000000000E-01
      6.10000000000000E+00   6.09999999799912E+00   0.00000000000000E+00   0.00000000000000E+00   2.00084607198915E-05
      1.40392629834145E-17   2.00084607199055E-05   4.47095763921528E-13   0.00000000000000E+00   2.00084607199056E-09
      0.00000000000000E+00   0.00000000000000E+00  -2.00084607216489E-05   1.74326009363531E-15  -2.00084607199057E-05
     -4.47111994099096E-13
      6.20000000000000E-01
      6.20000000000000E+00   6.19999999725708E+00   0.00000000000000E+00   0.00000000000000E+00   2.74294428732464E-05
      2.27632632608590E-17   2.74294428732692E-05   4.51262618858137E-13   0.00000000000000E+00   2.74294428732693E-09
      0.00000000000000E+00   0.00000000000000E+00  -2.74294428753576E-05   2.08828149215617E-15  -2.74294428732693E-05
     -4.51278848792996E-13
      6.30000000000000E-01
      6.30000000000000E+00   6.29999999559767E+00   0.00000000000000E+00   0.00000000000000E+00   4.40229903286238E-05
     -1.70571397451623E-15   4.40229903269181E-05   4.55212545857508E-13   0.00000000000000E+00   4.40229903269279E-09
      0.00000000000000E+00   0.00000000000000E+00  -4.40229899487923E-05  -3.78126069355998E-13  -4.40229903269184E-05
     -4.55228775023093E-13
      6.32500000000000E-01
      6.32500000000000E+00   6.32499999418181E+00   0.00000000000000E+00   0.00000000000000E+00   5.81822671518543E-05
      3.20839966425385E-17   5.81822671518864E-05   4.55948038941846E-13   0.00000000000000E+00   5.81822671518863E-09
      0.00000000000000E+00   0.00000000000000E+00  -5.81822671601075E-05   8.22085799918451E-15  -5.81822671518867E-05
     -4.55964267169547E-13
      6.34583333333334E-01
      6.34583333333334E+00   6.34583332524919E+00   0.00000000000000E+00   0.00000000000000E+00   8.08413673911268E-05
      9.78777328266980E-16   8.08413673921056E-05   4.56361845475701E-13   0.00000000000000E+00   8.08413673921088E-09
      0.00000000000000E+00   0.00000000000000E+00  -8.08413677106778E-05   3.18571798541419E-13  -8.08413673921060E-05
     -4.56378071674209E-13
      6.36458333333334E-01
      6.36458333333334E+00   6.36458332072976E+00   0.00000000000000E+00   0.00000000000000E+00   1.26035434279718E-04
      1.54660764141955E-16   1.26035434279872E-04   4.56565842078903E-13   0.00000000000000E+00   1.26035434279873E-08
      0.00000000000000E+00   0.00000000000000E+00  -1.26035434336162E-04   5.62906402456083E-14  -1.26035434279872E-04
     -4.56582062795352E-13
      6.39583333333334E-01
      6.39583333333334E+00   6.39583330870422E+00   0.00000000000000E+00   0.00000000000000E+00   2.46291057491866E-04
      8.98341675367272E-16   2.46291057492765E-04   4.56659285711326E-13   0.00000000000000E+00   2.46291057492770E-08
      0.00000000000000E+00   0.00000000000000E+00  -2.46291058272610E-04   7.79843574652444E-13  -2.46291057492766E-04
     -4.56675478199614E-13
      6.45000000000000E-01
      6.45000000000000E+00   6.44999995316513E+00   0.00000000000000E+00   0.00000000000000E+00   4.68348447823473E-04
      1.59350523570525E-15   4.68348447825067E-04   4.56748321126975E-13   0.00000000000000E+00   4.68348447825094E-08
      0.00000000000000E+00   0.00000000000000E+00  -4.68348450871743E-04   3.04667271104453E-12  -4.68348447825070E-04
     -4.56764418983057E-13
      6.54750000000000E-01
      6.54750000000000E+00   6.54749991285052E+00   0.00000000000000E+00   0.00000000000000E+00   8.71494840389701E-04
      1.09235135419386E-16   8.71494840389810E-04   4.56889574689348E-13   0.00000000000000E+00   8.71494840389809E-08
      0.00000000000000E+00   0.00000000000000E+00  -8.71494840803504E-04   4.13698277512259E-13  -8.71494840389805E-04
     -4.56905439999517E-13
      6.64750000000000E-01
      6.64750000000000E+00   6.64749987141090E+00   0.00000000000000E+00   0.00000000000000E+00   1.28589081024408E-03
     -1.40310931736093E-15   1.28589081024268E-03   4.57029008047777E-13   0.00000000000000E+00   1.28589081024270E-07
      0.00000000000000E+00   0.00000000000000E+00  -1.28589080194859E-03  -8.29409123378085E-12  -1.28589081024268E-03
     -4.57044628633199E-13
      6.74750000000000E-01
      6.74750000000000E+00   6.74749982992616E+00   0.00000000000000E+00   0.00000000000000E+00   1.70073869118534E-03
     -2.21890893733766E-16   1.70073869118512E-03   4.57165759142216E-13   0.00000000000000E+00   1.70073869118512E-07
      0.00000000000000E+00   0.00000000000000E+00  -1.70073868933319E-03  -1.85192294242407E-12  -1.70073869118512E-03
     -4.57181153245754E-13
      6.84750000000000E-01