DF-ISE text

Info {
  version   = 1.0
  type      = xyplot
  datasets  = [
    "time"
    "ntype OuterVoltage" "ntype InnerVoltage" "ntype QuasiFermiPotential" "ntype DisplacementCurrent" "ntype eCurrent"
    "ntype hCurrent" "ntype TotalCurrent" "ntype Charge" "ptype OuterVoltage" "ptype InnerVoltage"
    "ptype QuasiFermiPotential" "ptype DisplacementCurrent" "ptype eCurrent" "ptype hCurrent" "ptype TotalCurrent"
    "ptype Charge" ]
  functions = [
    Time
    OuterVoltage InnerVoltage QuasiFermiPotential DisplacementCurrent eCurrent
    hCurrent TotalCurrent Charge OuterVoltage InnerVoltage
    QuasiFermiPotential DisplacementCurrent eCurrent hCurrent TotalCurrent
    Charge ]
}

Data {
      1.00000000000000E-02
      1.00000000000000E-01   9.99999992954571E-02   0.00000000000000E+00   0.00000000000000E+00   7.04542954538835E-06
     -1.43823577320879E-17   7.04542954537397E-06   1.23734017062544E-13   0.00000000000000E+00   7.04542954537510E-10
      0.00000000000000E+00   0.00000000000000E+00  -7.04542954526832E-06  -1.05674716343765E-16  -7.04542954537400E-06
     -1.23750196896455E-13
      2.00000000000000E-02
      2.00000000000000E-01   1.99999999288772E-01   0.00000000000000E+00   0.00000000000000E+00   7.11228163689727E-06
     -3.90766355751709E-18   7.11228163689337E-06   1.34212346211679E-13   0.00000000000000E+00   7.11228163689339E-10
      0.00000000000000E+00   0.00000000000000E+00  -7.11228163706958E-06   1.76213661375589E-16  -7.11228163689337E-06
     -1.34228526714339E-13
      3.00000000000000E-02
      3.00000000000000E-01   2.99999999282605E-01   0.00000000000000E+00   0.00000000000000E+00   7.17393599039249E-06
     -4.42030022119939E-18   7.17393599038807E-06   1.44061633822946E-13   0.00000000000000E+00   7.17393599038808E-10
      0.00000000000000E+00   0.00000000000000E+00  -7.17393599015903E-06  -2.29039074224775E-16  -7.17393599038807E-06
     -1.44077814925846E-13
      4.00000000000000E-02
      4.00000000000000E-01   3.99999999276880E-01   0.00000000000000E+00   0.00000000000000E+00   7.23118380355913E-06
     -4.06011896985358E-18   7.23118380355507E-06   1.53383316403681E-13   0.00000000000000E+00   7.23118380355505E-10
      0.00000000000000E+00   0.00000000000000E+00  -7.23118380352044E-06  -3.45927964594603E-17  -7.23118380355503E-06
     -1.53399498036588E-13
      5.00000000000000E-02
      5.00000000000000E-01   4.99999999271512E-01   0.00000000000000E+00   0.00000000000000E+00   7.28488617435444E-06
     -3.55430794248330E-18   7.28488617435089E-06   1.62253478740468E-13   0.00000000000000E+00   7.28488617435090E-10
      0.00000000000000E+00   0.00000000000000E+00  -7.28488617460157E-06   2.50604170887548E-16  -7.28488617435097E-06
     -1.62269660834653E-13
      6.00000000000000E-02
      6.00000000000000E-01   5.99999999266415E-01   0.00000000000000E+00   0.00000000000000E+00   7.33586824181909E-06
     -3.23182187387183E-18   7.33586824181586E-06   1.70731042178463E-13   0.00000000000000E+00   7.33586824181579E-10
      0.00000000000000E+00   0.00000000000000E+00  -7.33586824201288E-06   1.97001928284982E-16  -7.33586824181587E-06
     -1.70747224669241E-13
      7.00000000000000E-02
      7.00000000000000E-01   6.99999999261518E-01   0.00000000000000E+00   0.00000000000000E+00   7.38486096828437E-06
     -2.45536699510735E-18   7.38486096828192E-06   1.78862789540742E-13   0.00000000000000E+00   7.38486096828188E-10
      0.00000000000000E+00   0.00000000000000E+00  -7.38486096827990E-06  -1.99467955214048E-18  -7.38486096828190E-06
     -1.78878972369231E-13
      8.00000000000000E-02
      8.00000000000000E-01   7.99999999256744E-01   0.00000000000000E+00   0.00000000000000E+00   7.43257226816974E-06
     -1.89452478126411E-18   7.43257226816785E-06   1.86686571266210E-13   0.00000000000000E+00   7.43257226816785E-10
      0.00000000000000E+00   0.00000000000000E+00  -7.43257226812532E-06  -4.25274657312878E-17  -7.43257226816785E-06
     -1.86702754380351E-13
      9.00000000000000E-02
      9.00000000000000E-01   8.99999999252025E-01   0.00000000000000E+00   0.00000000000000E+00   7.47973744349186E-06
     -1.73939236289877E-18   7.47973744349012E-06   1.94233438007038E-13   0.00000000000000E+00   7.47973744349012E-10
      0.00000000000000E+00   0.00000000000000E+00  -7.47973744353082E-06   4.07836244099750E-17  -7.47973744349003E-06
     -1.94249621361993E-13
      1.00000000000000E-01
      1.00000000000000E+00   9.99999999247287E-01   0.00000000000000E+00   0.00000000000000E+00   7.52712523247200E-06
     -1.45580739884177E-18   7.52712523247054E-06   2.01529135759051E-13   0.00000000000000E+00   7.52712523247055E-10
      0.00000000000000E+00   0.00000000000000E+00  -7.52712523257960E-06   1.09030051572222E-16  -7.52712523247057E-06
     -2.01545319317026E-13
      1.10000000000000E-01
      1.10000000000000E+00   1.09999999924245E+00   0.00000000000000E+00   0.00000000000000E+00   7.57545844126847E-06
     -1.61505712484561E-18   7.57545844126686E-06   2.08595235526016E-13   0.00000000000000E+00   7.57545844126686E-10
      0.00000000000000E+00   0.00000000000000E+00  -7.57545844133290E-06   6.60562077857672E-17  -7.57545844126684E-06
     -2.08611419255754E-13
      1.20000000000000E-01
      1.20000000000000E+00   1.19999999923746E+00   0.00000000000000E+00   0.00000000000000E+00   7.62536957487759E-06
     -1.69647277905021E-18   7.62536957487589E-06   2.15450057558141E-13   0.00000000000000E+00   7.62536957487590E-10
      0.00000000000000E+00   0.00000000000000E+00  -7.62536957489591E-06   1.99720562675880E-17  -7.62536957487593E-06
     -2.15466241434162E-13
      1.30000000000000E-01
      1.30000000000000E+00   1.29999999923227E+00   0.00000000000000E+00   0.00000000000000E+00   7.67738859337168E-06
     -2.04396241879947E-18   7.67738859336963E-06   2.22109456750884E-13   0.00000000000000E+00   7.67738859336962E-10
      0.00000000000000E+00   0.00000000000000E+00  -7.67738859333190E-06  -3.76906831503954E-17  -7.67738859336959E-06
     -2.22125640752652E-13
      1.40000000000000E-01
      1.40000000000000E+00   1.39999999922682E+00   0.00000000000000E+00   0.00000000000000E+00   7.73188672463922E-06
     -2.53838982501134E-18   7.73188672463668E-06   2.28587399126603E-13   0.00000000000000E+00   7.73188672463668E-10
      0.00000000000000E+00   0.00000000000000E+00  -7.73188672455709E-06  -7.95441438006205E-17  -7.73188672463663E-06
     -2.28603583237676E-13
      1.50000000000000E-01
      1.50000000000000E+00   1.49999999922108E+00   0.00000000000000E+00   0.00000000000000E+00   7.78916829654948E-06
     -3.52891607856062E-18   7.78916829654595E-06   2.34895992384491E-13   0.00000000000000E+00   7.78916829654591E-10
      0.00000000000000E+00   0.00000000000000E+00  -7.78916829643802E-06  -1.07935225327618E-16  -7.78916829654595E-06
     -2.34912176591732E-13
      1.60000000000000E-01
      1.60000000000000E+00   1.59999999921506E+00   0.00000000000000E+00   0.00000000000000E+00   7.84945930277913E-06
     -9.67282907033335E-18   7.84945930276946E-06   2.41044059613801E-13   0.00000000000000E+00   7.84945930276946E-10
      0.00000000000000E+00   0.00000000000000E+00  -7.84945930260814E-06  -1.61314869448886E-16  -7.84945930276946E-06
     -2.41060243906617E-13
      1.70000000000000E-01
      1.70000000000000E+00   1.69999999920870E+00   0.00000000000000E+00   0.00000000000000E+00   7.91292915425340E-06
     -7.26378135412254E-17   7.91292915418077E-06   2.47031575030882E-13   0.00000000000000E+00   7.91292915418077E-10
      0.00000000000000E+00   0.00000000000000E+00  -7.91292915373372E-06  -4.47019685773201E-16  -7.91292915418074E-06
     -2.47047759400433E-13
      1.80000000000000E-01
      1.80000000000000E+00   1.79999999920205E+00   0.00000000000000E+00   0.00000000000000E+00   7.97946405982480E-06
     -1.01874201590345E-20   7.97946405982479E-06   2.52830678805636E-13   0.00000000000000E+00   7.97946405982479E-10
      0.00000000000000E+00   0.00000000000000E+00  -7.97946405983544E-06   1.06237317887473E-17  -7.97946405982482E-06
     -2.52846863243731E-13
      1.90000000000000E-01
      1.90000000000000E+00   1.89999999919519E+00   0.00000000000000E+00   0.00000000000000E+00   8.04810400808419E-06
     -8.76654344951136E-18   8.04810400807542E-06   2.58326829188057E-13   0.00000000000000E+00   8.04810400807542E-10
      0.00000000000000E+00   0.00000000000000E+00  -8.04810400785339E-06  -2.22073333972340E-16  -8.04810400807546E-06
     -2.58343013685336E-13
      2.00000000000000E-01
      2.00000000000000E+00   1.99999999918829E+00   0.00000000000000E+00   0.00000000000000E+00   8.11703964806514E-06
      6.34175923661383E-18   8.11703964807148E-06   2.63336491839447E-13   0.00000000000000E+00   8.11703964807150E-10
      0.00000000000000E+00   0.00000000000000E+00  -8.11703964805681E-06  -1.46978355766048E-17  -8.11703964807151E-06
     -2.63352676385791E-13
      2.10000000000000E-01
      2.10000000000000E+00   2.09999999918117E+00   0.00000000000000E+00   0.00000000000000E+00   8.18832031043410E-06
      5.95562285378671E-21   8.18832031043411E-06   2.68088120772613E-13   0.00000000000000E+00   8.18832031043414E-10
      0.00000000000000E+00   0.00000000000000E+00  -8.18832031047501E-06   4.09484634973160E-17  -8.18832031043406E-06
     -2.68104305363238E-13
      2.20000000000000E-01
      2.20000000000000E+00   2.19999999917356E+00   0.00000000000000E+00   0.00000000000000E+00   8.26451899206524E-06
     -3.17032688163745E-19   8.26451899206492E-06   2.72783565444872E-13   0.00000000000000E+00   8.26451899206489E-10
      0.00000000000000E+00   0.00000000000000E+00  -8.26451899212589E-06   6.10502030696264E-17  -8.26451899206484E-06
     -2.72799750078094E-13
      2.30000000000000E-01
      2.30000000000000E+00   2.29999999916531E+00   0.00000000000000E+00   0.00000000000000E+00   8.34693859187919E-06
     -2.42264455223859E-21   8.34693859187919E-06   2.77449379057102E-13   0.00000000000000E+00   8.34693859187920E-10
      0.00000000000000E+00   0.00000000000000E+00  -8.34693859192247E-06   4.33322789664636E-17  -8.34693859187914E-06
     -2.77465563731767E-13
      2.40000000000000E-01
      2.40000000000000E+00   2.39999999915634E+00   0.00000000000000E+00   0.00000000000000E+00   8.43670134917451E-06
      9.21857835637823E-22   8.43670134917451E-06   2.82092498472152E-13   0.00000000000000E+00   8.43670134917452E-10
      0.00000000000000E+00   0.00000000000000E+00  -8.43670134915474E-06  -1.97551522166972E-17  -8.43670134917450E-06
     -2.82108683187353E-13
      2.50000000000000E-01
      2.50000000000000E+00   2.49999999914650E+00   0.00000000000000E+00   0.00000000000000E+00   8.53498646332799E-06
      2.28565021873433E-16   8.53498646355656E-06   2.86717026137129E-13   0.00000000000000E+00   8.53498646355638E-10
      0.00000000000000E+00   0.00000000000000E+00  -8.53498646401091E-06   4.54333389894180E-16  -8.53498646355658E-06
     -2.86733210892127E-13
      2.60000000000000E-01
      2.60000000000000E+00   2.59999999913568E+00   0.00000000000000E+00   0.00000000000000E+00   8.64311395061367E-06
      2.22476203253468E-16   8.64311395083615E-06   2.91325788364546E-13   0.00000000000000E+00   8.64311395083601E-10
      0.00000000000000E+00   0.00000000000000E+00  -8.64311394643332E-06  -4.40284769637110E-15  -8.64311395083617E-06
     -2.91341973158692E-13
      2.70000000000000E-01
      2.70000000000000E+00   2.69999999912374E+00   0.00000000000000E+00   0.00000000000000E+00   8.76255777941525E-06
      2.15617526411718E-16   8.76255777963087E-06   2.95920803207354E-13   0.00000000000000E+00   8.76255777963080E-10
      0.00000000000000E+00   0.00000000000000E+00  -8.76255776785823E-06  -1.17725870213660E-14  -8.76255777963081E-06
     -2.95936988040074E-13
      2.80000000000000E-01
      2.80000000000000E+00   2.79999999911049E+00   0.00000000000000E+00   0.00000000000000E+00   8.89499749849107E-06
      2.32159160338945E-16   8.89499749872323E-06   3.00503535378430E-13   0.00000000000000E+00   8.89499749872323E-10
      0.00000000000000E+00   0.00000000000000E+00  -8.89499747579995E-06  -2.29232275070826E-14  -8.89499749872318E-06
     -3.00519720249238E-13
      2.90000000000000E-01
      2.90000000000000E+00   2.89999999909578E+00   0.00000000000000E+00   0.00000000000000E+00   9.04237628402818E-06
      2.58936169934256E-16   9.04237628428712E-06   3.05075057652069E-13   0.00000000000000E+00   9.04237628428730E-10
      0.00000000000000E+00   0.00000000000000E+00  -9.04237624844873E-06  -3.58383486486290E-14  -9.04237628428708E-06
     -3.05091242560439E-13
      3.00000000000000E-01
      3.00000000000000E+00   2.99999999907932E+00   0.00000000000000E+00   0.00000000000000E+00   9.20691655152987E-06
      2.73484619770073E-16   9.20691655180335E-06   3.09636158089681E-13   0.00000000000000E+00   9.20691655180369E-10
      0.00000000000000E+00   0.00000000000000E+00  -9.20691650434486E-06  -4.74585109587487E-14  -9.20691655180337E-06
     -3.09652343035137E-13
      3.10000000000000E-01
      3.10000000000000E+00   3.09999999906090E+00   0.00000000000000E+00   0.00000000000000E+00   9.39112096950318E-06
      2.87066893468306E-16   9.39112096979025E-06   3.14187412265292E-13   0.00000000000000E+00   9.39112096979059E-10
      0.00000000000000E+00   0.00000000000000E+00  -9.39112092610772E-06  -4.36824280888644E-14  -9.39112096979014E-06
     -3.14203597247325E-13
      3.20000000000000E-01
      3.20000000000000E+00   3.19999999904023E+00   0.00000000000000E+00   0.00000000000000E+00   9.59778030210860E-06
      3.12325761441681E-16   9.59778030242092E-06   3.18729232384519E-13   0.00000000000000E+00   9.59778030242107E-10
      0.00000000000000E+00   0.00000000000000E+00  -9.59778028455049E-06  -1.78704530476139E-14  -9.59778030242095E-06
     -3.18745417402594E-13
      3.30000000000000E-01
      3.30000000000000E+00   3.29999999901700E+00   0.00000000000000E+00   0.00000000000000E+00   9.83002072288053E-06
      3.38132751394887E-16   9.83002072321867E-06   3.23261901245341E-13   0.00000000000000E+00   9.83002072321842E-10
      0.00000000000000E+00   0.00000000000000E+00  -9.83002073149688E-06   8.27814252782362E-15  -9.83002072321874E-06
     -3.23278086298879E-13
      3.40000000000000E-01
      3.40000000000000E+00   3.39999999899085E+00   0.00000000000000E+00   0.00000000000000E+00   1.00914188961215E-05
      3.54636999045462E-16   1.00914188964762E-05   3.27785596324049E-13   0.00000000000000E+00   1.00914188964756E-09
      0.00000000000000E+00   0.00000000000000E+00  -1.00914189171908E-05   2.07146189846786E-14  -1.00914188964762E-05
     -3.27801781412420E-13
      3.50000000000000E-01
      3.50000000000000E+00   3.49999999896140E+00   0.00000000000000E+00   0.00000000000000E+00   1.03861610743805E-05
      3.67173169857618E-16   1.03861610747477E-05   3.32300407828441E-13   0.00000000000000E+00   1.03861610747469E-09
      0.00000000000000E+00   0.00000000000000E+00  -1.03861610981299E-05   2.33822232454724E-14  -1.03861610747477E-05
     -3.32316592950909E-13
      3.60000000000000E-01
      3.60000000000000E+00   3.59999999892807E+00   0.00000000000000E+00   0.00000000000000E+00   1.07192106122886E-05
      3.84108625016531E-16   1.07192106126727E-05   3.36806353194274E-13   0.00000000000000E+00   1.07192106126719E-09
      0.00000000000000E+00   0.00000000000000E+00  -1.07192106359592E-05   2.32863584852183E-14  -1.07192106126729E-05
     -3.36822538350007E-13
      3.70000000000000E-01
      3.70000000000000E+00   3.69999999889036E+00   0.00000000000000E+00   0.00000000000000E+00   1.10964782815996E-05
      4.06474147394755E-16   1.10964782820061E-05   3.41303389141162E-13   0.00000000000000E+00   1.10964782820052E-09
      0.00000000000000E+00   0.00000000000000E+00  -1.10964783056144E-05   2.36082282081700E-14  -1.10964782820062E-05
     -3.41319574329189E-13
      3.80000000000000E-01
      3.80000000000000E+00   3.79999999884751E+00   0.00000000000000E+00   0.00000000000000E+00   1.15250082682548E-05
      4.27465367675911E-16   1.15250082686823E-05   3.45791421563156E-13   0.00000000000000E+00   1.15250082686814E-09
      0.00000000000000E+00   0.00000000000000E+00  -1.15250082936254E-05   2.49431039899699E-14  -1.15250082686823E-05
     -3.45807606782299E-13
      3.90000000000000E-01
      3.90000000000000E+00   3.89999999879869E+00   0.00000000000000E+00   0.00000000000000E+00   1.20131977847621E-05
      4.39293000283742E-16   1.20131977852014E-05   3.50270313004906E-13   0.00000000000000E+00   1.20131977852005E-09
      0.00000000000000E+00   0.00000000000000E+00  -1.20131978118843E-05   2.66826900462468E-14  -1.20131977852016E-05
     -3.50286498253765E-13
      4.00000000000000E-01
      4.00000000000000E+00   3.99999999874291E+00   0.00000000000000E+00   0.00000000000000E+00   1.25710734567224E-05
      4.38800670954678E-16   1.25710734571612E-05   3.54739887033441E-13   0.00000000000000E+00   1.25710734571603E-09
      0.00000000000000E+00   0.00000000000000E+00  -1.25710734860743E-05   2.89130682309359E-14  -1.25710734571612E-05
     -3.54756072310291E-13
      4.10000000000000E-01
      4.10000000000000E+00   4.09999999867893E+00   0.00000000000000E+00   0.00000000000000E+00   1.32106509094993E-05
      4.28095193154249E-16   1.32106509099274E-05   3.59199928569046E-13   0.00000000000000E+00   1.32106509099265E-09
      0.00000000000000E+00   0.00000000000000E+00  -1.32106509413455E-05   3.14179477815586E-14  -1.32106509099276E-05
     -3.59216113871767E-13
      4.20000000000000E-01
      4.20000000000000E+00   4.19999999860537E+00   0.00000000000000E+00   0.00000000000000E+00   1.39464013635304E-05
      4.12714449344980E-16   1.39464013639431E-05   3.63650179276936E-13   0.00000000000000E+00   1.39464013639422E-09
      0.00000000000000E+00   0.00000000000000E+00  -1.39464013973879E-05   3.34447729807705E-14  -1.39464013639431E-05
     -3.63666364602908E-13
      4.30000000000000E-01
      4.30000000000000E+00   4.29999999852044E+00   0.00000000000000E+00   0.00000000000000E+00   1.47958477267679E-05
      3.97888986900033E-16   1.47958477271658E-05   3.68090327257078E-13   0.00000000000000E+00   1.47958477271647E-09
      0.00000000000000E+00   0.00000000000000E+00  -1.47958477624213E-05   3.52554613813599E-14  -1.47958477271658E-05
     -3.68106512602986E-13
      4.40000000000000E-01
      4.40000000000000E+00   4.39999999842198E+00   0.00000000000000E+00   0.00000000000000E+00   1.57803238728321E-05
      3.85279685813235E-16   1.57803238732173E-05   3.72519990227012E-13   0.00000000000000E+00   1.57803238732163E-09
      0.00000000000000E+00   0.00000000000000E+00  -1.57803239095934E-05   3.63761947710372E-14  -1.57803238732172E-05
     -3.72536175588659E-13
      4.50000000000000E-01
      4.50000000000000E+00   4.49999999830739E+00   0.00000000000000E+00   0.00000000000000E+00   1.69259521007303E-05
      3.73274681709317E-16   1.69259521011035E-05   3.76938691223023E-13   0.00000000000000E+00   1.69259521011025E-09
      0.00000000000000E+00   0.00000000000000E+00  -1.69259521379348E-05   3.68312792252864E-14  -1.69259521011035E-05
     -3.76954876595037E-13
      4.60000000000000E-01
      4.60000000000000E+00   4.59999999817354E+00   0.00000000000000E+00   0.00000000000000E+00   1.82649087622226E-05
      3.57979935841150E-16   1.82649087625806E-05   3.81345825865351E-13   0.00000000000000E+00   1.82649087625798E-09
      0.00000000000000E+00   0.00000000000000E+00  -1.82649087991379E-05   3.65573827781986E-14  -1.82649087625806E-05
     -3.81362011240777E-13
      4.70000000000000E-01
      4.70000000000000E+00   4.69999999801626E+00   0.00000000000000E+00   0.00000000000000E+00   1.98370379426585E-05
      3.19018382902803E-16   1.98370379429776E-05   3.85740620520066E-13   0.00000000000000E+00   1.98370379429771E-09
      0.00000000000000E+00   0.00000000000000E+00  -1.98370379763409E-05   3.33633510684916E-14  -1.98370379429775E-05
     -3.85756805889801E-13
      4.80000000000000E-01
      4.80000000000000E+00   4.79999999783083E+00   0.00000000000000E+00   0.00000000000000E+00   2.16918312702516E-05
      2.10986291940612E-16   2.16918312704626E-05   3.90122081109167E-13   0.00000000000000E+00   2.16918312704626E-09
      0.00000000000000E+00   0.00000000000000E+00  -2.16918312925887E-05   2.21262742888753E-14  -2.16918312704625E-05
     -3.90138266461111E-13
      4.90000000000000E-01
      4.90000000000000E+00   4.89999999761090E+00   0.00000000000000E+00   0.00000000000000E+00   2.38909382212596E-05
     -2.45213309405792E-17   2.38909382212351E-05   3.94488928685335E-13   0.00000000000000E+00   2.38909382212364E-09
      0.00000000000000E+00   0.00000000000000E+00  -2.38909382141463E-05  -7.08866421147425E-15  -2.38909382212350E-05
     -3.94505114003270E-13
      5.00000000000000E-01
      5.00000000000000E+00   4.99999999734888E+00   0.00000000000000E+00   0.00000000000000E+00   2.65115150006065E-05
     -4.24614925463240E-16   2.65115150001819E-05   3.98839515932130E-13   0.00000000000000E+00   2.65115150001873E-09
      0.00000000000000E+00   0.00000000000000E+00  -2.65115149310132E-05  -6.91680839913034E-14  -2.65115150001813E-05
     -3.98855701193979E-13
      5.10000000000000E-01
      5.10000000000000E+00   5.09999999703490E+00   0.00000000000000E+00   0.00000000000000E+00   2.96509196103913E-05
     -1.00379689987574E-15   2.96509196093875E-05   4.03171715288244E-13   0.00000000000000E+00   2.96509196094029E-09
      0.00000000000000E+00   0.00000000000000E+00  -2.96509194248430E-05  -1.84544350895290E-13  -2.96509196093873E-05
     -4.03187900463615E-13
      5.20000000000000E-01
      5.20000000000000E+00   5.19999999665671E+00   0.00000000000000E+00   0.00000000000000E+00   3.34332353839689E-05
      1.30852508328769E-18   3.34332353839703E-05   4.07482769346470E-13   0.00000000000000E+00   3.34332353839704E-09
      0.00000000000000E+00   0.00000000000000E+00  -3.34332353842033E-05   2.32869399742873E-16  -3.34332353839704E-05
     -4.07498954392834E-13
      5.30000000000000E-01
      5.30000000000000E+00   5.29999999619820E+00   0.00000000000000E+00   0.00000000000000E+00   3.80182137436393E-05
      2.60090064301539E-18   3.80182137436419E-05   4.11769090817212E-13   0.00000000000000E+00   3.80182137436420E-09
      0.00000000000000E+00   0.00000000000000E+00  -3.80182137441619E-05   5.20068179515784E-16  -3.80182137436418E-05
     -4.11785275674196E-13
      5.40000000000000E-01
      5.40000000000000E+00   5.39999999563860E+00   0.00000000000000E+00   0.00000000000000E+00   4.36136149337691E-05
      5.07336548175267E-18   4.36136149337741E-05   4.16025991137734E-13   0.00000000000000E+00   4.36136149337742E-09
      0.00000000000000E+00   0.00000000000000E+00  -4.36136149354748E-05   1.70029195611131E-15  -4.36136149337745E-05
     -4.16042175718111E-13
      5.50000000000000E-01
      5.50000000000000E+00   5.49999999495077E+00   0.00000000000000E+00   0.00000000000000E+00   5.04925404091580E-05
      1.00202350030149E-17   5.04925404091680E-05   4.20247305181060E-13   0.00000000000000E+00   5.04925404091681E-09
      0.00000000000000E+00   0.00000000000000E+00  -5.04925404126680E-05   3.50035063893042E-15  -5.04925404091677E-05
     -4.20263489356602E-13
      5.60000000000000E-01
      5.60000000000000E+00   5.59999999409820E+00   0.00000000000000E+00   0.00000000000000E+00   5.90182670236730E-05
      2.02970715917871E-17   5.90182670236933E-05   4.24424863129781E-13   0.00000000000000E+00   5.90182670236934E-09
      0.00000000000000E+00   0.00000000000000E+00  -5.90182670316629E-05   7.96910902732689E-15  -5.90182670236938E-05
     -4.24441046708527E-13
      5.70000000000000E-01
      5.70000000000000E+00   5.69999999303197E+00   0.00000000000000E+00   0.00000000000000E+00   6.96804931748417E-05
      4.23815774628178E-17   6.96804931748841E-05   4.28547738256725E-13   0.00000000000000E+00   6.96804931748839E-09
      0.00000000000000E+00   0.00000000000000E+00  -6.96804931938664E-05   1.89821572921886E-14  -6.96804931748842E-05
     -4.28563920945512E-13
      5.80000000000000E-01
      5.80000000000000E+00   5.79999999168509E+00   0.00000000000000E+00   0.00000000000000E+00   8.31492637916220E-05
      9.12908545618389E-17   8.31492637917134E-05   4.32601168137686E-13   0.00000000000000E+00   8.31492637917140E-09
      0.00000000000000E+00   0.00000000000000E+00  -8.31492638389428E-05   4.72292762514786E-14  -8.31492637917135E-05
     -4.32617349479176E-13
      5.90000000000000E-01
      5.90000000000000E+00   5.89999998996428E+00   0.00000000000000E+00   0.00000000000000E+00   1.00357209609197E-04
      2.03267706433805E-16   1.00357209609400E-04   4.36565004980136E-13   0.00000000000000E+00   1.00357209609400E-08
      0.00000000000000E+00   0.00000000000000E+00  -1.00357209732742E-04   1.23340888899292E-13  -1.00357209609402E-04
     -4.36581184244412E-13
      6.00000000000000E-01
      6.00000000000000E+00   5.99999998773694E+00   0.00000000000000E+00   0.00000000000000E+00   1.22630582918377E-04
      4.70673958546324E-16   1.22630582918848E-04   4.40411491594912E-13   0.00000000000000E+00   1.22630582918848E-08
      0.00000000000000E+00   0.00000000000000E+00  -1.22630583257414E-04   3.38566753677902E-13  -1.22630582918847E-04
     -4.40427667588093E-13
      6.10000000000000E-01
      6.10000000000000E+00   6.09999998480794E+00   0.00000000000000E+00   0.00000000000000E+00   1.51920599240706E-04
      1.15295203955882E-15   1.51920599241859E-04   4.44102012411232E-13   0.00000000000000E+00   1.51920599241863E-08
      0.00000000000000E+00   0.00000000000000E+00  -1.51920600234724E-04   9.92862412013282E-13  -1.51920599241861E-04
     -4.44118183126898E-13
      6.20000000000000E-01
      6.20000000000000E+00   6.19999998086632E+00   0.00000000000000E+00   0.00000000000000E+00   1.91336738654237E-04
      3.10106253420961E-15   1.91336738657338E-04   4.47581582559730E-13   0.00000000000000E+00   1.91336738657365E-08
      0.00000000000000E+00   0.00000000000000E+00  -1.91336741886691E-04   3.22935214761026E-12  -1.91336738657339E-04
     -4.47597744503066E-13
      6.30000000000000E-01
      6.30000000000000E+00   6.29999997525520E+00   0.00000000000000E+00   0.00000000000000E+00   2.47448389045788E-04
     -7.17558153910784E-17   2.47448389045717E-04   4.50760921412314E-13   0.00000000000000E+00   2.47448389045716E-08
      0.00000000000000E+00   0.00000000000000E+00  -2.47448388954413E-04  -9.13002742296539E-14  -2.47448389045713E-04
     -4.50777067936847E-13
      6.40000000000000E-01
      6.40000000000000E+00   6.39999996365734E+00   0.00000000000000E+00   0.00000000000000E+00   3.63426760836908E-04
      2.17209346454576E-16   3.63426760837125E-04   4.53279080098929E-13   0.00000000000000E+00   3.63426760837127E-08
      0.00000000000000E+00   0.00000000000000E+00  -3.63426761200873E-04   3.63747087760280E-13  -3.63426760837126E-04
     -4.53295187633806E-13
      6.50000000000000E-01
      6.50000000000000E+00   6.49999992919267E+00   0.00000000000000E+00   0.00000000000000E+00   7.08073203633288E-04
      6.53594873334307E-15   7.08073203639824E-04   4.53986979775738E-13   0.00000000000000E+00   7.08073203639945E-08
      0.00000000000000E+00   0.00000000000000E+00  -7.08073218781023E-04   1.51411956566931E-11  -7.08073203639828E-04
     -4.54002918800318E-13
      6.60000000000000E-01
      6.60000000000000E+00   6.59999988860002E+00   0.00000000000000E+00   0.00000000000000E+00   1.11399965236169E-03
     -3.38309758900241E-16   1.11399965236135E-03   4.54240096317332E-13   0.00000000000000E+00   1.11399965236135E-07
      0.00000000000000E+00   0.00000000000000E+00  -1.11399965143780E-03  -9.23546640657690E-13  -1.11399965236135E-03
     -4.54255795282712E-13
      6.70000000000000E-01
      6.70000000000000E+00   6.69999984742492E+00   0.00000000000000E+00   0.00000000000000E+00   1.52575070747586E-03
      2.95235134441074E-16   1.52575070747615E-03   4.54449806942997E-13   0.00000000000000E+00   1.52575070747615E-07
      0.00000000000000E+00   0.00000000000000E+00  -1.52575070864617E-03   1.17002490325499E-12  -1.52575070747615E-03
     -4.54465268252363E-13
      6.80000000000000E-01
      6.80000000000000E+00   6.79999980607558E+00   0.00000000000000E+00   0.00000000000000E+00   1.93924394012387E-03
     -3.09475112067519E-15   1.93924394012077E-03   4.54645958348861E-13   0.00000000000000E+00   1.93924394012080E-07
      0.00000000000000E+00   0.00000000000000E+00  -1.93924392304542E-03  -1.70753521494151E-11  -1.93924394012077E-03
     -4.54661198995529E-13
      6.90000000000000E-01
      6.90000000000000E+00   6.89999976463731E+00   0.00000000000000E+00   0.00000000000000E+00   2.35362671421259E-03
     -6.89804165105747E-16   2.35362671421190E-03   4.54834770865543E-13   0.00000000000000E+00   2.35362671421190E-07
      0.00000000000000E+00   0.00000000000000E+00  -2.35362670937073E-03  -4.84118446203566E-12  -2.35362671421191E-03
     -4.54849808666420E-13
      7.00000000000000E-01
      7.00000000000000E+00   6.99999972313893E+00   0.00000000000000E+00   0.00000000000000E+00   2.76861076034294E-03
      7.22290299919799E-14   2.76861076041517E-03   4.55018339576877E-13   0.00000000000000E+00   2.76861076042095E-07
      0.00000000000000E+00   0.00000000000000E+00  -2.76861090533030E-03   1.44915136034561E-10  -2.76861076041516E-03
     -4.55033190356899E-13
      7.10000000000000E-01
      7.10000000000000E+00   7.09999968159296E+00   0.00000000000000E+00   0.00000000000000E+00   3.18407006353624E-03
      2.57836226424630E-14   3.18407006356202E-03   4.55197572368576E-13   0.00000000000000E+00   3.18407006356328E-07
      0.00000000000000E+00   0.00000000000000E+00  -3.18407009285526E-03   2.92932392490486E-11  -3.18407006356202E-03
     -4.55212249694699E-13
      7.20000000000000E-01