DF-ISE text

Info {
  version   = 1.0
  type      = xyplot
  datasets  = [
    "time"
    "ntype OuterVoltage" "ntype InnerVoltage" "ntype QuasiFermiPotential" "ntype DisplacementCurrent" "ntype eCurrent"
    "ntype hCurrent" "ntype TotalCurrent" "ntype Charge" "ptype OuterVoltage" "ptype InnerVoltage"
    "ptype QuasiFermiPotential" "ptype DisplacementCurrent" "ptype eCurrent" "ptype hCurrent" "ptype TotalCurrent"
    "ptype Charge" ]
  functions = [
    Time
    OuterVoltage InnerVoltage QuasiFermiPotential DisplacementCurrent eCurrent
    hCurrent TotalCurrent Charge OuterVoltage InnerVoltage
    QuasiFermiPotential DisplacementCurrent eCurrent hCurrent TotalCurrent
    Charge ]
}

Data {
      1.00000000000000E-02
      1.00000000000000E-01   9.99999999256121E-02   0.00000000000000E+00   0.00000000000000E+00   7.43887460250762E-07
     -5.35263831672172E-20   7.43887460250709E-07   4.59978538500144E-14   0.00000000000000E+00   7.43887460250670E-11
      0.00000000000000E+00   0.00000000000000E+00  -7.43887460286574E-07   3.58719709558815E-17  -7.43887460250702E-07
     -4.80812510728402E-14
      2.00000000000000E-02
      2.00000000000000E-01   1.99999999925396E-01   0.00000000000000E+00   0.00000000000000E+00   7.46033162750521E-07
     -8.63312504953550E-20   7.46033162750435E-07   5.20057224814808E-14   0.00000000000000E+00   7.46033162750439E-11
      0.00000000000000E+00   0.00000000000000E+00  -7.46033162763758E-07   1.32944363879347E-17  -7.46033162750463E-07
     -5.40891197081763E-14
      3.00000000000000E-02
      3.00000000000000E-01   2.99999999925232E-01   0.00000000000000E+00   0.00000000000000E+00   7.47669667001897E-07
     -5.06578972210514E-20   7.47669667001846E-07   5.79237518495381E-14   0.00000000000000E+00   7.47669667001859E-11
      0.00000000000000E+00   0.00000000000000E+00  -7.47669666988756E-07  -1.31002622948707E-17  -7.47669667001857E-07
     -6.00071490819735E-14
      4.00000000000000E-02
      4.00000000000000E-01   3.99999999925101E-01   0.00000000000000E+00   0.00000000000000E+00   7.48991698069725E-07
     -3.42348641927071E-19   7.48991698069382E-07   6.37622049366420E-14   0.00000000000000E+00   7.48991698069707E-11
      0.00000000000000E+00   0.00000000000000E+00  -7.48991698079904E-07   1.05272846798118E-17  -7.48991698069377E-07
     -6.58456021762632E-14
      5.00000000000000E-02
      5.00000000000000E-01   4.99999999924992E-01   0.00000000000000E+00   0.00000000000000E+00   7.50105838737860E-07
      1.74092845509633E-19   7.50105838738034E-07   6.95303963162450E-14   0.00000000000000E+00   7.50105838737860E-11
      0.00000000000000E+00   0.00000000000000E+00  -7.50105838742219E-07   4.18695220429543E-18  -7.50105838738032E-07
     -7.16137935643002E-14
      6.00000000000000E-02
      6.00000000000000E-01   5.99999999924894E-01   0.00000000000000E+00   0.00000000000000E+00   7.51078968203327E-07
     -2.70396443004654E-19   7.51078968203057E-07   7.52360244636235E-14   0.00000000000000E+00   7.51078968203328E-11
      0.00000000000000E+00   0.00000000000000E+00  -7.51078968187529E-07  -1.55196174983198E-17  -7.51078968203049E-07
     -7.73194217213070E-14
      7.00000000000000E-02
      7.00000000000000E-01   6.99999999924805E-01   0.00000000000000E+00   0.00000000000000E+00   7.51954583029779E-07
      2.31608106721587E-19   7.51954583030010E-07   8.08853357120104E-14   0.00000000000000E+00   7.51954583029783E-11
      0.00000000000000E+00   0.00000000000000E+00  -7.51954583040944E-07   1.09435638128670E-17  -7.51954583030000E-07
     -8.29687329805151E-14
      8.00000000000000E-02
      8.00000000000000E-01   7.99999999924726E-01   0.00000000000000E+00   0.00000000000000E+00   7.52765507508730E-07
     -3.87737212990734E-19   7.52765507508342E-07   8.64834300168806E-14   0.00000000000000E+00   7.52765507508731E-11
      0.00000000000000E+00   0.00000000000000E+00  -7.52765507490936E-07  -1.74024234677636E-17  -7.52765507508338E-07
     -8.85668272974359E-14
      9.00000000000000E-02
      9.00000000000000E-01   8.99999999924648E-01   0.00000000000000E+00   0.00000000000000E+00   7.53532526453454E-07
      2.95475823043244E-20   7.53532526453484E-07   9.20345287542627E-14   0.00000000000000E+00   7.53532526453453E-11
      0.00000000000000E+00   0.00000000000000E+00  -7.53532526449723E-07  -3.73865620936209E-18  -7.53532526453462E-07
     -9.41179260481930E-14
      1.00000000000000E-01
      1.00000000000000E+00   9.99999999924569E-01   0.00000000000000E+00   0.00000000000000E+00   7.54277211597994E-07
      1.91698737035802E-19   7.54277211598185E-07   9.75421777244133E-14   0.00000000000000E+00   7.54277211597995E-11
      0.00000000000000E+00   0.00000000000000E+00  -7.54277211589329E-07  -8.87662694018123E-18  -7.54277211598206E-07
     -9.96255750331297E-14
      1.10000000000000E-01
      1.10000000000000E+00   1.09999999992449E+00   0.00000000000000E+00   0.00000000000000E+00   7.55020181244237E-07
      9.24434528196867E-20   7.55020181244329E-07   1.03009396461973E-13   0.00000000000000E+00   7.55020181244240E-11
      0.00000000000000E+00   0.00000000000000E+00  -7.55020181215019E-07  -2.93131833352738E-17  -7.55020181244332E-07
     -1.05092793786987E-13
      1.20000000000000E-01
      1.20000000000000E+00   1.19999999992443E+00   0.00000000000000E+00   0.00000000000000E+00   7.55770382261163E-07
      1.93103429388824E-20   7.55770382261182E-07   1.08438787398963E-13   0.00000000000000E+00   7.55770382261164E-11
      0.00000000000000E+00   0.00000000000000E+00  -7.55770382271829E-07   1.06570171043323E-17  -7.55770382261172E-07
     -1.10522184741912E-13
      1.30000000000000E-01
      1.30000000000000E+00   1.29999999992434E+00   0.00000000000000E+00   0.00000000000000E+00   7.56551885276787E-07
     -2.65416378770647E-19   7.56551885276521E-07   1.13832615267666E-13   0.00000000000000E+00   7.56551885276787E-11
      0.00000000000000E+00   0.00000000000000E+00  -7.56551885273128E-07  -3.37251061480238E-18  -7.56551885276500E-07
     -1.15916012630295E-13
      1.40000000000000E-01
      1.40000000000000E+00   1.39999999992425E+00   0.00000000000000E+00   0.00000000000000E+00   7.57394720796383E-07
      7.21119511608502E-21   7.57394720796390E-07   1.19192868633122E-13   0.00000000000000E+00   7.57394720796380E-11
      0.00000000000000E+00   0.00000000000000E+00  -7.57394720783041E-07  -1.33531249305497E-17  -7.57394720796394E-07
     -1.21276266017242E-13
      1.50000000000000E-01
      1.50000000000000E+00   1.49999999992418E+00   0.00000000000000E+00   0.00000000000000E+00   7.58310539974569E-07
     -2.33957372578209E-19   7.58310539974335E-07   1.24521310243892E-13   0.00000000000000E+00   7.58310539974568E-11
      0.00000000000000E+00   0.00000000000000E+00  -7.58310539988516E-07   1.42100961697034E-17  -7.58310539974306E-07
     -1.26604707651453E-13
      1.60000000000000E-01
      1.60000000000000E+00   1.59999999992406E+00   0.00000000000000E+00   0.00000000000000E+00   7.59317722788431E-07
      4.31776243858061E-20   7.59317722788474E-07   1.29819518059627E-13   0.00000000000000E+00   7.59317722788427E-11
      0.00000000000000E+00   0.00000000000000E+00  -7.59317722787894E-07  -5.41617073273370E-19  -7.59317722788436E-07
     -1.31902915492674E-13
      1.70000000000000E-01
      1.70000000000000E+00   1.69999999992395E+00   0.00000000000000E+00   0.00000000000000E+00   7.60463985078394E-07
      1.90829702410210E-19   7.60463985078585E-07   1.35088918910434E-13   0.00000000000000E+00   7.60463985078392E-11
      0.00000000000000E+00   0.00000000000000E+00  -7.60463985125096E-07   4.65185093869908E-17  -7.60463985078577E-07
     -1.37172316371008E-13
      1.80000000000000E-01
      1.80000000000000E+00   1.79999999992381E+00   0.00000000000000E+00   0.00000000000000E+00   7.61799912157785E-07
      1.01990750180945E-19   7.61799912157887E-07   1.40330815776636E-13   0.00000000000000E+00   7.61799912157784E-11
      0.00000000000000E+00   0.00000000000000E+00  -7.61799912169287E-07   1.13901849526981E-17  -7.61799912157897E-07
     -1.42414213266738E-13
      1.90000000000000E-01
      1.90000000000000E+00   1.89999999992366E+00   0.00000000000000E+00   0.00000000000000E+00   7.63351406237858E-07
      2.48515483019704E-21   7.63351406237861E-07   1.45546408512338E-13   0.00000000000000E+00   7.63351406237858E-11
      0.00000000000000E+00   0.00000000000000E+00  -7.63351406281077E-07   4.31939724445252E-17  -7.63351406237883E-07
     -1.47629806034000E-13
      2.00000000000000E-01
      2.00000000000000E+00   1.99999999992350E+00   0.00000000000000E+00   0.00000000000000E+00   7.65137857799235E-07
      8.30151342542189E-22   7.65137857799236E-07   1.50736809571456E-13   0.00000000000000E+00   7.65137857799234E-11
      0.00000000000000E+00   0.00000000000000E+00  -7.65137857791130E-07  -8.11728462669469E-18  -7.65137857799247E-07
     -1.52820207126705E-13
      2.10000000000000E-01
      2.10000000000000E+00   2.09999999992327E+00   0.00000000000000E+00   0.00000000000000E+00   7.67209962320802E-07
      1.67038334565433E-16   7.67209962487841E-07   1.55903058344494E-13   0.00000000000000E+00   7.67209962483933E-11
      0.00000000000000E+00   0.00000000000000E+00  -7.67209959630462E-07  -2.85739217906333E-15  -7.67209962487854E-07
     -1.57986455935232E-13
      2.20000000000000E-01
      2.20000000000000E+00   2.19999999992305E+00   0.00000000000000E+00   0.00000000000000E+00   7.69648819505281E-07
      1.63561347955207E-16   7.69648819668843E-07   1.61046136709636E-13   0.00000000000000E+00   7.69648819665901E-11
      0.00000000000000E+00   0.00000000000000E+00  -7.69648803163502E-07  -1.65053263886874E-14  -7.69648819668829E-07
     -1.63129534337461E-13
      2.30000000000000E-01
      2.30000000000000E+00   2.29999999992275E+00   0.00000000000000E+00   0.00000000000000E+00   7.72536565653977E-07
      1.59152774959177E-16   7.72536565813130E-07   1.66166983993954E-13   0.00000000000000E+00   7.72536565811502E-11
      0.00000000000000E+00   0.00000000000000E+00  -7.72536509498056E-07  -5.63150385692247E-14  -7.72536565813095E-07
     -1.68250381660120E-13
      2.40000000000000E-01
      2.40000000000000E+00   2.39999999992240E+00   0.00000000000000E+00   0.00000000000000E+00   7.75932631387933E-07
      1.54926648503989E-16   7.75932631542859E-07   1.71266507302236E-13   0.00000000000000E+00   7.75932631542210E-11
      0.00000000000000E+00   0.00000000000000E+00  -7.75932629734801E-07  -1.80806840445847E-15  -7.75932631542870E-07
     -1.73349905007644E-13
      2.50000000000000E-01
      2.50000000000000E+00   2.49999999992202E+00   0.00000000000000E+00   0.00000000000000E+00   7.79879737422119E-07
      1.52798501718463E-16   7.79879737574918E-07   1.76345583737033E-13   0.00000000000000E+00   7.79879737574160E-11
      0.00000000000000E+00   0.00000000000000E+00  -7.79879735809116E-07  -1.76579629679395E-15  -7.79879737574913E-07
     -1.78428981482210E-13
      2.60000000000000E-01
      2.60000000000000E+00   2.59999999992155E+00   0.00000000000000E+00   0.00000000000000E+00   7.84444589588790E-07
      1.51939233446228E-16   7.84444589740729E-07   1.81405053535889E-13   0.00000000000000E+00   7.84444589740023E-11
      0.00000000000000E+00   0.00000000000000E+00  -7.84444589075206E-07  -6.65494801297529E-16  -7.84444589740700E-07
     -1.83488451320856E-13
      2.70000000000000E-01
      2.70000000000000E+00   2.69999999992101E+00   0.00000000000000E+00   0.00000000000000E+00   7.89743149230134E-07
      1.52449445440187E-16   7.89743149382583E-07   1.86445707157159E-13   0.00000000000000E+00   7.89743149381659E-11
      0.00000000000000E+00   0.00000000000000E+00  -7.89743149166326E-07  -2.16254112148460E-16  -7.89743149382580E-07
     -1.88529104981152E-13
      2.80000000000000E-01
      2.80000000000000E+00   2.79999999992042E+00   0.00000000000000E+00   0.00000000000000E+00   7.95931390689253E-07
      1.53446590188809E-16   7.95931390842700E-07   1.91468270397745E-13   0.00000000000000E+00   7.95931390842084E-11
      0.00000000000000E+00   0.00000000000000E+00  -7.95931389092965E-07  -1.74973455480048E-15  -7.95931390842700E-07
     -1.93551668259000E-13
      2.90000000000000E-01
      2.90000000000000E+00   2.89999999991967E+00   0.00000000000000E+00   0.00000000000000E+00   8.03190125199024E-07
      1.55487078865558E-16   8.03190125354511E-07   1.96473390853415E-13   0.00000000000000E+00   8.03190125354369E-11
      0.00000000000000E+00   0.00000000000000E+00  -8.03190113164963E-07  -1.21895146005453E-14  -8.03190125354478E-07
     -1.98556788748982E-13
      3.00000000000000E-01
      3.00000000000000E+00   2.99999999991883E+00   0.00000000000000E+00   0.00000000000000E+00   8.11715327531954E-07
      1.59489273590918E-16   8.11715327691443E-07   2.01461628583543E-13   0.00000000000000E+00   8.11715327691590E-11
      0.00000000000000E+00   0.00000000000000E+00  -8.11715275507800E-07  -5.21836343779543E-14  -8.11715327691434E-07
     -2.03545026509149E-13
      3.10000000000000E-01
      3.10000000000000E+00   3.09999999991782E+00   0.00000000000000E+00   0.00000000000000E+00   8.21719106282684E-07
      1.65807404448756E-16   8.21719106448491E-07   2.06433452372749E-13   0.00000000000000E+00   8.21719106448575E-11
      0.00000000000000E+00   0.00000000000000E+00  -8.21719004319941E-07  -1.02128559109003E-13  -8.21719106448500E-07
     -2.08516850322606E-13
      3.20000000000000E-01
      3.20000000000000E+00   3.19999999991666E+00   0.00000000000000E+00   0.00000000000000E+00   8.33465997447727E-07
      1.73690285867633E-16   8.33465997621417E-07   2.11389240897507E-13   0.00000000000000E+00   8.33465997621177E-11
      0.00000000000000E+00   0.00000000000000E+00  -8.33465992361974E-07  -5.25944743092714E-15  -8.33465997621422E-07
     -2.13472638864004E-13
      3.30000000000000E-01
      3.30000000000000E+00   3.29999999991525E+00   0.00000000000000E+00   0.00000000000000E+00   8.47343439282514E-07
      1.81957790596584E-16   8.47343439464472E-07   2.16329287728270E-13   0.00000000000000E+00   8.47343439464459E-11
      0.00000000000000E+00   0.00000000000000E+00  -8.47343437823051E-07  -1.64138398992589E-15  -8.47343439464435E-07
     -2.18412685701320E-13
      3.40000000000000E-01
      3.40000000000000E+00   3.39999999991363E+00   0.00000000000000E+00   0.00000000000000E+00   8.63933468902547E-07
      1.91448727449130E-16   8.63933469093996E-07   2.21253809562593E-13   0.00000000000000E+00   8.63933469093998E-11
      0.00000000000000E+00   0.00000000000000E+00  -8.63933465972978E-07  -3.12100973948423E-15  -8.63933469093988E-07
     -2.23337207528591E-13
      3.50000000000000E-01
      3.50000000000000E+00   3.49999999991160E+00   0.00000000000000E+00   0.00000000000000E+00   8.84097606170240E-07
      2.01910306481344E-16   8.84097606372150E-07   2.26162956104361E-13   0.00000000000000E+00   8.84097606372293E-11
      0.00000000000000E+00   0.00000000000000E+00  -8.84097604154761E-07  -2.21740171076922E-15  -8.84097606372163E-07
     -2.28246354044597E-13
      3.60000000000000E-01
      3.60000000000000E+00   3.59999999990908E+00   0.00000000000000E+00   0.00000000000000E+00   9.09149967997276E-07
      2.13645598650053E-16   9.09149968210922E-07   2.31056818828118E-13   0.00000000000000E+00   9.09149968211030E-11
      0.00000000000000E+00   0.00000000000000E+00  -9.09149966061887E-07  -2.14904453071769E-15  -9.09149968210931E-07
     -2.33140216715935E-13
      3.70000000000000E-01
      3.70000000000000E+00   3.69999999990586E+00   0.00000000000000E+00   0.00000000000000E+00   9.41240133625896E-07
      2.26258013504757E-16   9.41240133852154E-07   2.35935434927602E-13   0.00000000000000E+00   9.41240133852563E-11
      0.00000000000000E+00   0.00000000000000E+00  -9.41240126369474E-07  -7.48267734901761E-15  -9.41240133852152E-07
     -2.38018832722832E-13
      3.80000000000000E-01
      3.80000000000000E+00   3.79999999990159E+00   0.00000000000000E+00   0.00000000000000E+00   9.84260433419092E-07
     -2.11184831063955E-20   9.84260433419070E-07   2.40798777198745E-13   0.00000000000000E+00   9.84260433419090E-11
      0.00000000000000E+00   0.00000000000000E+00  -9.84260433461907E-07   4.28625964867236E-17  -9.84260433419044E-07
     -2.42882174835040E-13
      3.90000000000000E-01
      3.90000000000000E+00   3.89999999989536E+00   0.00000000000000E+00   0.00000000000000E+00   1.04637697759296E-06
      2.13357164481561E-19   1.04637697759318E-06   2.45646696878749E-13   0.00000000000000E+00   1.04637697759295E-10
      0.00000000000000E+00   0.00000000000000E+00  -1.04637697776961E-06   1.76428067533621E-16  -1.04637697759318E-06
     -2.47730094229245E-13
      4.00000000000000E-01
      4.00000000000000E+00   3.99999999988507E+00   0.00000000000000E+00   0.00000000000000E+00   1.14916480071819E-06
      5.43620699771380E-20   1.14916480071824E-06   2.50478666953206E-13   0.00000000000000E+00   1.14916480071813E-10
      0.00000000000000E+00   0.00000000000000E+00  -1.14916480101652E-06   2.98266925980069E-16  -1.14916480071826E-06
     -2.52562063707349E-13
      4.10000000000000E-01
      4.10000000000000E+00   4.09999999986189E+00   0.00000000000000E+00   0.00000000000000E+00   1.38085619283879E-06
     -1.01962769068403E-19   1.38085619283868E-06   2.55292158985504E-13   0.00000000000000E+00   1.38085619283873E-10
      0.00000000000000E+00   0.00000000000000E+00  -1.38085619297576E-06   1.37092787643359E-16  -1.38085619283866E-06
     -2.57375553891050E-13
      4.20000000000000E-01
      4.20000000000000E+00   4.19999999965559E+00   0.00000000000000E+00   0.00000000000000E+00   3.44387961562737E-06
      8.23677545937205E-19   3.44387961562819E-06   2.60034080763588E-13   0.00000000000000E+00   3.44387961562813E-10
      0.00000000000000E+00   0.00000000000000E+00  -3.44387961572016E-06   9.19644533137125E-17  -3.44387961562820E-06
     -2.62117431714271E-13
      4.21250000000000E-01
      4.21250000000000E+00   4.21249999942246E+00   0.00000000000000E+00   0.00000000000000E+00   5.77516793544464E-06
      9.83036793188300E-18   5.77516793545448E-06   2.60560653909695E-13   0.00000000000000E+00   5.77516793545460E-10
      0.00000000000000E+00   0.00000000000000E+00  -5.77516793561289E-06   1.58338952819526E-16  -5.77516793545455E-06
     -2.62643897567593E-13
      4.23500000000000E-01
      4.23500000000000E+00   4.23499999820457E+00   0.00000000000000E+00   0.00000000000000E+00   1.79542035505995E-05
     -1.43228733296146E-19   1.79542035505993E-05   2.61256933338780E-13   0.00000000000000E+00   1.79542035505994E-09
      0.00000000000000E+00   0.00000000000000E+00  -1.79542035506148E-05   1.56314743539185E-17  -1.79542035505992E-05
     -2.63338634251208E-13
      4.27400000000000E-01
      4.27400000000000E+00   4.27399999526251E+00   0.00000000000000E+00   0.00000000000000E+00   4.73750346120946E-05
     -1.62307464179223E-19   4.73750346120944E-05   2.62201660810448E-13   0.00000000000000E+00   4.73750346120944E-09
      0.00000000000000E+00   0.00000000000000E+00  -4.73750346120519E-05  -4.22500725364905E-17  -4.73750346120941E-05
     -2.64272908920236E-13
      4.33900000000000E-01
      4.33900000000000E+00   4.33899999016203E+00   0.00000000000000E+00   0.00000000000000E+00   9.83799312635444E-05
      1.60924947448565E-19   9.83799312635445E-05   2.63713482713436E-13   0.00000000000000E+00   9.83799312635442E-09
      0.00000000000000E+00   0.00000000000000E+00  -9.83799312635261E-05  -1.80844543941193E-17  -9.83799312635442E-05
     -2.65743123619238E-13
      4.43900000000000E-01
      4.43900000000000E+00   4.43899998222896E+00   0.00000000000000E+00   0.00000000000000E+00   1.77710430963659E-04
     -2.06658600898725E-18   1.77710430963657E-04   2.66015177587375E-13   0.00000000000000E+00   1.77710430963657E-08
      0.00000000000000E+00   0.00000000000000E+00  -1.77710430963783E-04   1.22120510005520E-16  -1.77710430963660E-04
     -2.67903421931439E-13
      4.53900000000000E-01
      4.53900000000000E+00   4.53899997347610E+00   0.00000000000000E+00   0.00000000000000E+00   2.65238875138669E-04
     -1.06287886252970E-18   2.65238875138668E-04   2.68259469035068E-13   0.00000000000000E+00   2.65238875138668E-08
      0.00000000000000E+00   0.00000000000000E+00  -2.65238875138891E-04   2.22636769037962E-16  -2.65238875138669E-04
     -2.69890729890520E-13
      4.55150000000000E-01
      4.55150000000000E+00   4.55149997080235E+00   0.00000000000000E+00   0.00000000000000E+00   2.91976697677125E-04
      9.40111376847289E-20   2.91976697677125E-04   2.68449366138127E-13   0.00000000000000E+00   2.91976697677125E-08
      0.00000000000000E+00   0.00000000000000E+00  -2.91976697676977E-04  -1.50428866172607E-16  -2.91976697677128E-04
     -2.70039919907708E-13
      4.57150000000000E-01
      4.57150000000000E+00   4.57149996475163E+00   0.00000000000000E+00   0.00000000000000E+00   3.52483895096359E-04
     -1.81717999077658E-18   3.52483895096357E-04   2.68652070759605E-13   0.00000000000000E+00   3.52483895096357E-08
      0.00000000000000E+00   0.00000000000000E+00  -3.52483895096358E-04  -2.08692909934428E-18  -3.52483895096360E-04
     -2.70171215414372E-13
      4.60616666666667E-01
      4.60616666666667E+00   4.60616662022587E+00   0.00000000000000E+00   0.00000000000000E+00   4.64408162453950E-04
     -5.33430255356997E-18   4.64408162453945E-04   2.68963177598303E-13   0.00000000000000E+00   4.64408162453945E-08
      0.00000000000000E+00   0.00000000000000E+00  -4.64408162453840E-04  -1.13891029350930E-16  -4.64408162453954E-04
     -2.70357363143865E-13
      4.66856666666667E-01
      4.66856666666667E+00   4.66856659978346E+00   0.00000000000000E+00   0.00000000000000E+00   6.68832388314455E-04
     -7.28862820402781E-19   6.68832388314455E-04   2.69505835300366E-13   0.00000000000000E+00   6.68832388314456E-08
      0.00000000000000E+00   0.00000000000000E+00  -6.68832388314401E-04  -5.59087436573400E-17  -6.68832388314457E-04
     -2.70694053020276E-13
      4.76856666666667E-01
      4.76856666666667E+00   4.76856656672815E+00   0.00000000000000E+00   0.00000000000000E+00   9.99385434112724E-04
     -3.53924283048391E-20   9.99385434112724E-04   2.70356525226872E-13   0.00000000000000E+00   9.99385434112723E-08
      0.00000000000000E+00   0.00000000000000E+00  -9.99385434112695E-04  -3.49216793489645E-17  -9.99385434112730E-04
     -2.71287811322601E-13
      4.86856666666667E-01
      4.86856666666667E+00   4.86856653340142E+00   0.00000000000000E+00   0.00000000000000E+00   1.33265237270332E-03
      5.08766156882063E-20   1.33265237270332E-03   2.71188199904110E-13   0.00000000000000E+00   1.33265237270333E-07
      0.00000000000000E+00   0.00000000000000E+00  -1.33265237270334E-03   6.40113474501006E-18  -1.33265237270333E-03
     -2.71962422996921E-13
      4.96856666666667E-01
      4.96856666666667E+00   4.96856649983519E+00   0.00000000000000E+00   0.00000000000000E+00   1.66831508933668E-03
     -2.80927399669661E-19   1.66831508933668E-03   2.72002322906262E-13   0.00000000000000E+00   1.66831508933668E-07
      0.00000000000000E+00   0.00000000000000E+00  -1.66831508933669E-03   1.25653175804231E-17  -1.66831508933667E-03
     -2.72697151625343E-13
      5.06856666666667E-01
      5.06856666666667E+00   5.06856646604652E+00   0.00000000000000E+00   0.00000000000000E+00   2.00620182183738E-03
     -4.25815153042596E-19   2.00620182183738E-03   2.72799934263919E-13   0.00000000000000E+00   2.00620182183738E-07
      0.00000000000000E+00   0.00000000000000E+00  -2.00620182183739E-03   1.46364894393439E-17  -2.00620182183738E-03
     -2.73449383358204E-13
      5.16856666666667E-01
      5.16856666666667E+00   5.16856643204603E+00   0.00000000000000E+00   0.00000000000000E+00   2.34620636726581E-03
     -2.76503346131556E-19   2.34620636726581E-03   2.73581815396410E-13   0.00000000000000E+00   2.34620636726581E-07
      0.00000000000000E+00   0.00000000000000E+00  -2.34620636726577E-03  -8.17793764770500E-17  -2.34620636726585E-03
     -2.74199548002896E-13
      5.26856666666667E-01
      5.26856666666667E+00   5.26856639784181E+00   0.00000000000000E+00   0.00000000000000E+00   2.68824862001590E-03
      9.06930975311503E-19   2.68824862001590E-03   2.74348603530769E-13   0.00000000000000E+00   2.68824862001590E-07
      0.00000000000000E+00   0.00000000000000E+00  -2.68824862001588E-03  -7.91392668949192E-18  -2.68824862001589E-03
     -2.74941921285417E-13
      5.36856666666667E-01
      5.36856666666667E+00   5.36856636344071E+00   0.00000000000000E+00   0.00000000000000E+00   3.03225934150550E-03
     -1.05956082237612E-18   3.03225934150550E-03   2.75100861962073E-13   0.00000000000000E+00   3.03225934150550E-07
      0.00000000000000E+00   0.00000000000000E+00  -3.03225934150547E-03  -3.33279967323482E-17  -3.03225934150551E-03
     -2.75674447523633E-13
      5.46856666666667E-01
      5.46856666666667E+00   5.46856632884911E+00   0.00000000000000E+00   0.00000000000000E+00   3.37817581053099E-03
      2.29829581304549E-18   3.37817581053099E-03   2.75839104655690E-13   0.00000000000000E+00   3.37817581053100E-07
      0.00000000000000E+00   0.00000000000000E+00  -3.37817581053098E-03   3.59949858525316E-18  -3.37817581053098E-03
     -2.76396237835041E-13
      5.56856666666667E-01
      5.56856666666667E+00   5.56856629407269E+00   0.00000000000000E+00   0.00000000000000E+00   3.72594016305576E-03
      1.79174168293248E-19   3.72594016305576E-03   2.76563806641700E-13   0.00000000000000E+00   3.72594016305576E-07
      0.00000000000000E+00   0.00000000000000E+00  -3.72594016305571E-03  -3.90822055951013E-17  -3.72594016305574E-03
     -2.77106908202916E-13
      5.66856666666667E-01
      5.66856666666667E+00   5.66856625911685E+00   0.00000000000000E+00   0.00000000000000E+00   4.07549845639909E-03
      1.42896929280788E-18   4.07549845639909E-03   2.77275410398540E-13   0.00000000000000E+00   4.07549845639908E-07
      0.00000000000000E+00   0.00000000000000E+00  -4.07549845639908E-03  -6.04844472984704E-18  -4.07549845639908E-03
     -2.77806333681473E-13
      5.76856666666667E-01
      5.76856666666667E+00   5.76856622398666E+00   0.00000000000000E+00   0.00000000000000E+00   4.42680004821868E-03
     -7.16696673172992E-19   4.42680004821868E-03   2.77974330425201E-13   0.00000000000000E+00   4.42680004821868E-07
      0.00000000000000E+00   0.00000000000000E+00  -4.42680004821863E-03  -1.72226040515799E-18  -4.42680004821863E-03
     -2.78494534488249E-13
      5.86856666666667E-01
      5.86856666666667E+00   5.86856618868696E+00   0.00000000000000E+00   0.00000000000000E+00   4.77979714461585E-03
      9.64443671306866E-19   4.77979714461585E-03   2.78660956768991E-13   0.00000000000000E+00   4.77979714461585E-07
      0.00000000000000E+00   0.00000000000000E+00  -4.77979714461583E-03   1.99008177046651E-18  -4.77979714461583E-03
     -2.79171616201579E-13
      5.96856666666667E-01
      5.96856666666667E+00   5.96856615322226E+00   0.00000000000000E+00   0.00000000000000E+00   5.13444445005308E-03
     -8.56054359623296E-19   5.13444445005308E-03   2.79335657866279E-13   0.00000000000000E+00   5.13444445005309E-07
      0.00000000000000E+00   0.00000000000000E+00  -5.13444445005308E-03   3.23975470207023E-17  -5.13444445005304E-03
     -2.79837735836646E-13
      6.06856666666667E-01
      6.06856666666667E+00   6.06856611759681E+00   0.00000000000000E+00   0.00000000000000E+00   5.49069888197605E-03
      4.22497112889017E-18   5.49069888197606E-03   2.79998782911033E-13   0.00000000000000E+00   5.49069888197606E-07
      0.00000000000000E+00   0.00000000000000E+00  -5.49069888197601E-03  -3.76667922469315E-17  -5.49069888197604E-03
     -2.80493081586404E-13
      6.16856666666667E-01
      6.16856666666667E+00   6.16856608181470E+00   0.00000000000000E+00   0.00000000000000E+00   5.84851933296369E-03
      3.98164818429440E-20   5.84851933296369E-03   2.80650663870528E-13   0.00000000000000E+00   5.84851933296368E-07
      0.00000000000000E+00   0.00000000000000E+00  -5.84851933296368E-03   6.93950046253047E-18  -5.84851933296367E-03
     -2.81137860276587E-13
      6.26856666666667E-01
      6.26856666666667E+00   6.26856604587999E+00   0.00000000000000E+00   0.00000000000000E+00   6.20786647367606E-03
      6.70244111022891E-19   6.20786647367606E-03   2.81291617171432E-13   0.00000000000000E+00   6.20786647367606E-07
      0.00000000000000E+00   0.00000000000000E+00  -6.20786647367602E-03  -6.63637844067450E-17  -6.20786647367609E-03
     -2.81772289341827E-13
      6.36856666666667E-01
      6.36856666666667E+00   6.36856600979641E+00   0.00000000000000E+00   0.00000000000000E+00   6.56870258986023E-03
      3.81890937489521E-16   6.56870258986061E-03   2.81921945104341E-13   0.00000000000000E+00   6.56870258986052E-07
      0.00000000000000E+00   0.00000000000000E+00  -6.56870258986316E-03   2.75173769815131E-15  -6.56870258986041E-03
     -2.82396591560204E-13
      6.46856666666667E-01
      6.46856666666667E+00   6.46856597356753E+00   0.00000000000000E+00   0.00000000000000E+00   6.93099143995450E-03
      3.34509324096418E-16   6.93099143995483E-03   2.82541937067456E-13   0.00000000000000E+00   6.93099143995477E-07
      0.00000000000000E+00   0.00000000000000E+00  -6.93099143995886E-03   4.20269075468075E-15  -6.93099143995466E-03
     -2.83010991598673E-13
      6.56856666666667E-01
      6.56856666666667E+00   6.56856593719686E+00   0.00000000000000E+00   0.00000000000000E+00   7.29469813433043E-03
      2.94874228448536E-16   7.29469813433073E-03   2.83151870631379E-13   0.00000000000000E+00   7.29469813433067E-07
      0.00000000000000E+00   0.00000000000000E+00  -7.29469813433721E-03   6.57752988125228E-15  -7.29469813433063E-03
     -2.83615713696017E-13
      6.66856666666667E-01