DF-ISE text

Info {
  version   = 1.0
  type      = xyplot
  datasets  = [
    "time"
    "ntype OuterVoltage" "ntype InnerVoltage" "ntype QuasiFermiPotential" "ntype DisplacementCurrent" "ntype eCurrent"
    "ntype hCurrent" "ntype TotalCurrent" "ntype Charge" "ptype OuterVoltage" "ptype InnerVoltage"
    "ptype QuasiFermiPotential" "ptype DisplacementCurrent" "ptype eCurrent" "ptype hCurrent" "ptype TotalCurrent"
    "ptype Charge" ]
  functions = [
    Time
    OuterVoltage InnerVoltage QuasiFermiPotential DisplacementCurrent eCurrent
    hCurrent TotalCurrent Charge OuterVoltage InnerVoltage
    QuasiFermiPotential DisplacementCurrent eCurrent hCurrent TotalCurrent
    Charge ]
}

Data {
      1.00000000000000E-02
      1.00000000000000E-01   9.99999991110841E-02   0.00000000000000E+00   0.00000000000000E+00   8.88915571022933E-06
     -1.05378881502563E-18   8.88915571022828E-06   3.96792056045335E-14   0.00000000000000E+00   8.88915571022835E-10
      0.00000000000000E+00   0.00000000000000E+00  -8.88915571025280E-06   2.45482431770657E-17  -8.88915571022825E-06
     -4.12885910956250E-14
      2.00000000000000E-02
      2.00000000000000E-01   1.99999999105785E-01   0.00000000000000E+00   0.00000000000000E+00   8.94215597224824E-06
     -6.66146245025926E-21   8.94215597224823E-06   4.35842747879645E-14   0.00000000000000E+00   8.94215597224823E-10
      0.00000000000000E+00   0.00000000000000E+00  -8.94215597225015E-06   1.90682546431688E-18  -8.94215597224824E-06
     -4.51936578146615E-14
      3.00000000000000E-02
      3.00000000000000E-01   2.99999999102051E-01   0.00000000000000E+00   0.00000000000000E+00   8.97949898160153E-06
      2.31765968800427E-20   8.97949898160155E-06   4.74468635975651E-14   0.00000000000000E+00   8.97949898160155E-10
      0.00000000000000E+00   0.00000000000000E+00  -8.97949898158999E-06  -1.15883883911479E-17  -8.97949898160158E-06
     -4.90562448137369E-14
      4.00000000000000E-02
      4.00000000000000E-01   3.99999999099317E-01   0.00000000000000E+00   0.00000000000000E+00   9.00680459932443E-06
      1.89512801219698E-20   9.00680459932445E-06   5.12759940330974E-14   0.00000000000000E+00   9.00680459932446E-10
      0.00000000000000E+00   0.00000000000000E+00  -9.00680459930999E-06  -1.45201084102784E-17  -9.00680459932451E-06
     -5.28853738627582E-14
      5.00000000000000E-02
      5.00000000000000E-01   4.99999999097252E-01   0.00000000000000E+00   0.00000000000000E+00   9.02747280267038E-06
     -2.93050343251616E-20   9.02747280267035E-06   5.50767420281567E-14   0.00000000000000E+00   9.02747280267037E-10
      0.00000000000000E+00   0.00000000000000E+00  -9.02747280266260E-06  -7.73327943652175E-18  -9.02747280267033E-06
     -5.66861207544237E-14
      6.00000000000000E-02
      6.00000000000000E-01   5.99999999095641E-01   0.00000000000000E+00   0.00000000000000E+00   9.04361093249250E-06
     -2.40163677847977E-20   9.04361093249247E-06   5.88525780475555E-14   0.00000000000000E+00   9.04361093249249E-10
      0.00000000000000E+00   0.00000000000000E+00  -9.04361093249380E-06   1.36204060732217E-18  -9.04361093249244E-06
     -6.04619558654602E-14
      7.00000000000000E-02
      7.00000000000000E-01   6.99999999094347E-01   0.00000000000000E+00   0.00000000000000E+00   9.05656350194957E-06
      3.47789365056097E-22   9.05656350194957E-06   6.26061080665673E-14   0.00000000000000E+00   9.05656350194953E-10
      0.00000000000000E+00   0.00000000000000E+00  -9.05656350196297E-06   1.34112499444841E-17  -9.05656350194956E-06
     -6.42154851146419E-14
      8.00000000000000E-02
      8.00000000000000E-01   7.99999999093275E-01   0.00000000000000E+00   0.00000000000000E+00   9.06721529307876E-06
     -1.17751542168993E-20   9.06721529307875E-06   6.63393837728768E-14   0.00000000000000E+00   9.06721529307874E-10
      0.00000000000000E+00   0.00000000000000E+00  -9.06721529306594E-06  -1.27281988921549E-17  -9.06721529307866E-06
     -6.79487601523303E-14
      9.00000000000000E-02
      9.00000000000000E-01   8.99999999092380E-01   0.00000000000000E+00   0.00000000000000E+00   9.07616644995570E-06
     -1.45423478606065E-20   9.07616644995569E-06   7.00540670770601E-14   0.00000000000000E+00   9.07616644995569E-10
      0.00000000000000E+00   0.00000000000000E+00  -9.07616644997342E-06   1.77509472812884E-17  -9.07616644995567E-06
     -7.16634428637508E-14
      1.00000000000000E-01
      1.00000000000000E+00   9.99999999091620E-01   0.00000000000000E+00   0.00000000000000E+00   9.08383598480390E-06
      4.56608553035606E-21   9.08383598480390E-06   7.37515328078669E-14   0.00000000000000E+00   9.08383598480391E-10
      0.00000000000000E+00   0.00000000000000E+00  -9.08383598480697E-06   2.98096764788937E-18  -9.08383598480399E-06
     -7.53609080599654E-14
      1.10000000000000E-01
      1.10000000000000E+00   1.09999999909095E+00   0.00000000000000E+00   0.00000000000000E+00   9.09052503676352E-06
      1.62257839929277E-16   9.09052503692577E-06   7.74329384933654E-14   0.00000000000000E+00   9.09052503696335E-10
      0.00000000000000E+00   0.00000000000000E+00  -9.09052503692371E-06  -2.07950860826545E-18  -9.09052503692579E-06
     -7.90423132563458E-14
      1.20000000000000E-01
      1.20000000000000E+00   1.19999999909035E+00   0.00000000000000E+00   0.00000000000000E+00   9.09645527743008E-06
      1.42377476161569E-16   9.09645527757246E-06   8.10992737223260E-14   0.00000000000000E+00   9.09645527759073E-10
      0.00000000000000E+00   0.00000000000000E+00  -9.09645527759808E-06   2.56010641664711E-17  -9.09645527757248E-06
     -8.27086480323722E-14
      1.30000000000000E-01
      1.30000000000000E+00   1.29999999908983E+00   0.00000000000000E+00   0.00000000000000E+00   9.10179549364482E-06
      1.21541664262079E-16   9.10179549376636E-06   8.47513957622944E-14   0.00000000000000E+00   9.10179549377522E-10
      0.00000000000000E+00   0.00000000000000E+00  -9.10179549381643E-06   5.00086732002443E-17  -9.10179549376642E-06
     -8.63607696485615E-14
      1.40000000000000E-01
      1.40000000000000E+00   1.39999999908933E+00   0.00000000000000E+00   0.00000000000000E+00   9.10667936898515E-06
      1.04765050014652E-16   9.10667936908992E-06   8.83900557037293E-14   0.00000000000000E+00   9.10667936909428E-10
      0.00000000000000E+00   0.00000000000000E+00  -9.10667936916403E-06   7.40853868413670E-17  -9.10667936908994E-06
     -8.99994291898666E-14
      1.50000000000000E-01
      1.50000000000000E+00   1.49999999908888E+00   0.00000000000000E+00   0.00000000000000E+00   9.11121546586112E-06
      9.27090634461083E-17   9.11121546595383E-06   9.20159180060236E-14   0.00000000000000E+00   9.11121546595601E-10
      0.00000000000000E+00   0.00000000000000E+00  -9.11121546604890E-06   9.51948156757618E-17  -9.11121546595371E-06
     -9.36252911112704E-14
      1.60000000000000E-01
      1.60000000000000E+00   1.59999999908846E+00   0.00000000000000E+00   0.00000000000000E+00   9.11549658272593E-06
      8.43335788950491E-17   9.11549658281026E-06   9.56295753073278E-14   0.00000000000000E+00   9.11549658281158E-10
      0.00000000000000E+00   0.00000000000000E+00  -9.11549658291796E-06   1.07734895619556E-16  -9.11549658281023E-06
     -9.72389480472150E-14
      1.70000000000000E-01
      1.70000000000000E+00   1.69999999908804E+00   0.00000000000000E+00   0.00000000000000E+00   9.11960929713147E-06
      7.85148527399230E-17   9.11960929720999E-06   9.92315598682672E-14   0.00000000000000E+00   9.11960929721079E-10
      0.00000000000000E+00   0.00000000000000E+00  -9.11960929732291E-06   1.12859653623294E-16  -9.11960929721005E-06
     -1.00840932254896E-13
      1.80000000000000E-01
      1.80000000000000E+00   1.79999999908763E+00   0.00000000000000E+00   0.00000000000000E+00   9.12363845108710E-06
      7.41556764996322E-17   9.12363845116125E-06   1.02822352685203E-13   0.00000000000000E+00   9.12363845116187E-10
      0.00000000000000E+00   0.00000000000000E+00  -9.12363845130138E-06   1.40174692114179E-16  -9.12363845116121E-06
     -1.04431724727331E-13
      1.90000000000000E-01
      1.90000000000000E+00   1.89999999908724E+00   0.00000000000000E+00   0.00000000000000E+00   9.12766824375987E-06
      7.08218178704450E-17   9.12766824383069E-06   1.06402390858525E-13   0.00000000000000E+00   9.12766824383115E-10
      0.00000000000000E+00   0.00000000000000E+00  -9.12766824398038E-06   1.49630935769841E-16  -9.12766824383075E-06
     -1.08011762561607E-13
      2.00000000000000E-01
      2.00000000000000E+00   1.99999999908681E+00   0.00000000000000E+00   0.00000000000000E+00   9.13178621401020E-06
      6.81037408338224E-17   9.13178621407831E-06   1.09972073502348E-13   0.00000000000000E+00   9.13178621407873E-10
      0.00000000000000E+00   0.00000000000000E+00  -9.13178621421344E-06   1.35103785903584E-16  -9.13178621407834E-06
     -1.11581444868393E-13
      2.10000000000000E-01
      2.10000000000000E+00   2.09999999908640E+00   0.00000000000000E+00   0.00000000000000E+00   9.13609037868072E-06
      6.58571489863212E-17   9.13609037874657E-06   1.13531766470516E-13   0.00000000000000E+00   9.13609037874695E-10
      0.00000000000000E+00   0.00000000000000E+00  -9.13609037888816E-06   1.41525894711303E-16  -9.13609037874663E-06
     -1.15141137497632E-13
      2.20000000000000E-01
      2.20000000000000E+00   2.19999999908593E+00   0.00000000000000E+00   0.00000000000000E+00   9.14069376663716E-06
      6.38869389746919E-17   9.14069376670105E-06   1.17081806234060E-13   0.00000000000000E+00   9.14069376670135E-10
      0.00000000000000E+00   0.00000000000000E+00  -9.14069376687653E-06   1.75470097252643E-16  -9.14069376670106E-06
     -1.18691176915764E-13
      2.30000000000000E-01
      2.30000000000000E+00   2.29999999908543E+00   0.00000000000000E+00   0.00000000000000E+00   9.14572396903209E-06
      6.19489950674012E-17   9.14572396909404E-06   1.20622503173175E-13   0.00000000000000E+00   9.14572396909428E-10
      0.00000000000000E+00   0.00000000000000E+00  -9.14572396930132E-06   2.07284360498317E-16  -9.14572396909404E-06
     -1.22231873497718E-13
      2.40000000000000E-01
      2.40000000000000E+00   2.39999999908487E+00   0.00000000000000E+00   0.00000000000000E+00   9.15132133792685E-06
      6.05799810968280E-17   9.15132133798743E-06   1.24154144429955E-13   0.00000000000000E+00   9.15132133798764E-10
      0.00000000000000E+00   0.00000000000000E+00  -9.15132133817070E-06   1.83258180018518E-16  -9.15132133798744E-06
     -1.25763514379741E-13
      2.50000000000000E-01
      2.50000000000000E+00   2.49999999908424E+00   0.00000000000000E+00   0.00000000000000E+00   9.15764049453438E-06
      5.90207463252563E-17   9.15764049459340E-06   1.27676996418419E-13   0.00000000000000E+00   9.15764049459353E-10
      0.00000000000000E+00   0.00000000000000E+00  -9.15764049472837E-06   1.34940804791803E-16  -9.15764049459343E-06
     -1.29286365969285E-13
      2.60000000000000E-01
      2.60000000000000E+00   2.59999999908350E+00   0.00000000000000E+00   0.00000000000000E+00   9.16485591625711E-06
      5.75994316387532E-17   9.16485591631471E-06   1.31191307097493E-13   0.00000000000000E+00   9.16485591631485E-10
      0.00000000000000E+00   0.00000000000000E+00  -9.16485591675185E-06   4.37120409340660E-16  -9.16485591631473E-06
     -1.32800676217778E-13
      2.70000000000000E-01
      2.70000000000000E+00   2.69999999908270E+00   0.00000000000000E+00   0.00000000000000E+00   9.17316831166707E-06
      5.64190933987230E-17   9.17316831172348E-06   1.34697308108107E-13   0.00000000000000E+00   9.17316831172363E-10
      0.00000000000000E+00   0.00000000000000E+00  -9.17316831215117E-06   4.27602194717650E-16  -9.17316831172357E-06
     -1.36306676757376E-13
      2.80000000000000E-01
      2.80000000000000E+00   2.79999999908171E+00   0.00000000000000E+00   0.00000000000000E+00   9.18280678562063E-06
      5.54071046530215E-17   9.18280678567604E-06   1.38195216837131E-13   0.00000000000000E+00   9.18280678567616E-10
      0.00000000000000E+00   0.00000000000000E+00  -9.18280678613568E-06   4.59527305239062E-16  -9.18280678567615E-06
     -1.39804584964757E-13
      2.90000000000000E-01
      2.90000000000000E+00   2.89999999908058E+00   0.00000000000000E+00   0.00000000000000E+00   9.19402764063163E-06
      5.44805927044208E-17   9.19402764068611E-06   1.41685238329327E-13   0.00000000000000E+00   9.19402764068625E-10
      0.00000000000000E+00   0.00000000000000E+00  -9.19402764118670E-06   5.00608193998433E-16  -9.19402764068609E-06
     -1.43294605873126E-13
      3.00000000000000E-01
      3.00000000000000E+00   2.99999999907927E+00   0.00000000000000E+00   0.00000000000000E+00   9.20711258512277E-06
      5.35263245722698E-17   9.20711258517629E-06   1.45167566938238E-13   0.00000000000000E+00   9.20711258517644E-10
      0.00000000000000E+00   0.00000000000000E+00  -9.20711258566716E-06   4.90869307559127E-16  -9.20711258517629E-06
     -1.46776933823102E-13
      3.10000000000000E-01
      3.10000000000000E+00   3.09999999907776E+00   0.00000000000000E+00   0.00000000000000E+00   9.22236912669951E-06
      5.25398956446719E-17   9.22236912675205E-06   1.48642387645007E-13   0.00000000000000E+00   9.22236912675214E-10
      0.00000000000000E+00   0.00000000000000E+00  -9.22236912710496E-06   3.52834754640306E-16  -9.22236912675213E-06
     -1.50251753781520E-13
      3.20000000000000E-01
      3.20000000000000E+00   3.19999999907598E+00   0.00000000000000E+00   0.00000000000000E+00   9.24013539697214E-06
      5.15211023244367E-17   9.24013539702366E-06   1.52109877038531E-13   0.00000000000000E+00   9.24013539702374E-10
      0.00000000000000E+00   0.00000000000000E+00  -9.24013539724790E-06   2.24310999512253E-16  -9.24013539702359E-06
     -1.53719242321228E-13
      3.30000000000000E-01
      3.30000000000000E+00   3.29999999907391E+00   0.00000000000000E+00   0.00000000000000E+00   9.26078918847235E-06
      5.04712650230510E-17   9.26078918852282E-06   1.55570204042992E-13   0.00000000000000E+00   9.26078918852291E-10
      0.00000000000000E+00   0.00000000000000E+00  -9.26078918898510E-06   4.62273538717789E-16  -9.26078918852282E-06
     -1.57179568348199E-13
      3.40000000000000E-01
      3.40000000000000E+00   3.39999999907153E+00   0.00000000000000E+00   0.00000000000000E+00   9.28475784278536E-06
      4.94667834512060E-17   9.28475784283483E-06   1.59023530558501E-13   0.00000000000000E+00   9.28475784283489E-10
      0.00000000000000E+00   0.00000000000000E+00  -9.28475784317089E-06   3.36105719852135E-16  -9.28475784283479E-06
     -1.60632893741563E-13
      3.50000000000000E-01
      3.50000000000000E+00   3.49999999906875E+00   0.00000000000000E+00   0.00000000000000E+00   9.31252649554569E-06
      4.84267339362369E-17   9.31252649559412E-06   1.62470012154232E-13   0.00000000000000E+00   9.31252649559418E-10
      0.00000000000000E+00   0.00000000000000E+00  -9.31252649590703E-06   3.12872443144010E-16  -9.31252649559416E-06
     -1.64079374046218E-13
      3.60000000000000E-01
      3.60000000000000E+00   3.59999999906552E+00   0.00000000000000E+00   0.00000000000000E+00   9.34464574489427E-06
      4.74413251547735E-17   9.34464574494171E-06   1.65909798847590E-13   0.00000000000000E+00   9.34464574494177E-10
      0.00000000000000E+00   0.00000000000000E+00  -9.34464574525486E-06   3.13196024297057E-16  -9.34464574494166E-06
     -1.67519159251504E-13
      3.70000000000000E-01
      3.70000000000000E+00   3.69999999906184E+00   0.00000000000000E+00   0.00000000000000E+00   9.38174119539818E-06
      4.64689390328581E-17   9.38174119544464E-06   1.69343035915741E-13   0.00000000000000E+00   9.38174119544473E-10
      0.00000000000000E+00   0.00000000000000E+00  -9.38174119571364E-06   2.69025474443153E-16  -9.38174119544462E-06
     -1.70952394602041E-13
      3.80000000000000E-01
      3.80000000000000E+00   3.79999999905756E+00   0.00000000000000E+00   0.00000000000000E+00   9.42452697476393E-06
      4.55525534792639E-17   9.42452697480948E-06   1.72769864628785E-13   0.00000000000000E+00   9.42452697480955E-10
      0.00000000000000E+00   0.00000000000000E+00  -9.42452697499029E-06   1.80829535917175E-16  -9.42452697480946E-06
     -1.74379221329913E-13
      3.90000000000000E-01
      3.90000000000000E+00   3.89999999905263E+00   0.00000000000000E+00   0.00000000000000E+00   9.47382592022224E-06
      4.46652191385639E-17   9.47382592026691E-06   1.76190422737202E-13   0.00000000000000E+00   9.47382592026693E-10
      0.00000000000000E+00   0.00000000000000E+00  -9.47382592063889E-06   3.71986202763438E-16  -9.47382592026690E-06
     -1.77799777140774E-13
      4.00000000000000E-01
      4.00000000000000E+00   3.99999999904694E+00   0.00000000000000E+00   0.00000000000000E+00   9.53060050628717E-06
      4.38416506818375E-17   9.53060050633101E-06   1.79604844503628E-13   0.00000000000000E+00   9.53060050633108E-10
      0.00000000000000E+00   0.00000000000000E+00  -9.53060050678051E-06   4.49609265205135E-16  -9.53060050633090E-06
     -1.81214196243527E-13
      4.10000000000000E-01
      4.10000000000000E+00   4.09999999904040E+00   0.00000000000000E+00   0.00000000000000E+00   9.59599870400092E-06
      4.30760577401838E-17   9.59599870404400E-06   1.83013260080447E-13   0.00000000000000E+00   9.59599870404402E-10
      0.00000000000000E+00   0.00000000000000E+00  -9.59599870455623E-06   5.12210369035277E-16  -9.59599870404402E-06
     -1.84622608724888E-13
      4.20000000000000E-01
      4.20000000000000E+00   4.19999999903284E+00   0.00000000000000E+00   0.00000000000000E+00   9.67141805356428E-06
      4.24370072029420E-17   9.67141805360672E-06   1.86415794094795E-13   0.00000000000000E+00   9.67141805360675E-10
      0.00000000000000E+00   0.00000000000000E+00  -9.67141805412343E-06   5.16798518440243E-16  -9.67141805360663E-06
     -1.88025139130068E-13
      4.30000000000000E-01
      4.30000000000000E+00   4.29999999902416E+00   0.00000000000000E+00   0.00000000000000E+00   9.75859321408581E-06
      4.18512078618824E-17   9.75859321412766E-06   1.89812563331299E-13   0.00000000000000E+00   9.75859321412768E-10
      0.00000000000000E+00   0.00000000000000E+00  -9.75859321430726E-06   1.79533384039441E-16  -9.75859321412773E-06
     -1.91421904139265E-13
      4.40000000000000E-01
      4.40000000000000E+00   4.39999999901402E+00   0.00000000000000E+00   0.00000000000000E+00   9.85971981106035E-06
      4.13853283460674E-17   9.85971981110173E-06   1.93203673337390E-13   0.00000000000000E+00   9.85971981110173E-10
      0.00000000000000E+00   0.00000000000000E+00  -9.85971981128546E-06   1.83765819589960E-16  -9.85971981110169E-06
     -1.94813009163980E-13
      4.50000000000000E-01
      4.50000000000000E+00   4.49999999900222E+00   0.00000000000000E+00   0.00000000000000E+00   9.97764164789597E-06
      4.10894762462538E-17   9.97764164793706E-06   1.96589213578579E-13   0.00000000000000E+00   9.97764164793700E-10
      0.00000000000000E+00   0.00000000000000E+00  -9.97764164805625E-06   1.19240827172052E-16  -9.97764164793701E-06
     -1.98198543488050E-13
      4.60000000000000E-01
      4.60000000000000E+00   4.59999999898839E+00   0.00000000000000E+00   0.00000000000000E+00   1.01161455031433E-05
      4.09535030255656E-17   1.01161455031843E-05   1.99969250489002E-13   0.00000000000000E+00   1.01161455031843E-09
      0.00000000000000E+00   0.00000000000000E+00  -1.01161455034426E-05   2.58412491441869E-16  -1.01161455031842E-05
     -2.01578573295216E-13
      4.70000000000000E-01
      4.70000000000000E+00   4.69999999897194E+00   0.00000000000000E+00   0.00000000000000E+00   1.02804470015691E-05
      4.09912754348205E-17   1.02804470016101E-05   2.03343817031578E-13   0.00000000000000E+00   1.02804470016101E-09
      0.00000000000000E+00   0.00000000000000E+00  -1.02804470016574E-05   4.72739086571144E-17  -1.02804470016102E-05
     -2.04953131189915E-13
      4.80000000000000E-01
      4.80000000000000E+00   4.79999999895222E+00   0.00000000000000E+00   0.00000000000000E+00   1.04780312148104E-05
      4.11698652737768E-17   1.04780312148515E-05   2.06712895813382E-13   0.00000000000000E+00   1.04780312148516E-09
      0.00000000000000E+00   0.00000000000000E+00  -1.04780312149836E-05   1.31972229089666E-16  -1.04780312148516E-05
     -2.08322199241683E-13
      4.90000000000000E-01
      4.90000000000000E+00   4.89999999892796E+00   0.00000000000000E+00   0.00000000000000E+00   1.07202003398667E-05
      4.12905406228129E-17   1.07202003399080E-05   2.10076389069895E-13   0.00000000000000E+00   1.07202003399080E-09
      0.00000000000000E+00   0.00000000000000E+00  -1.07202003400068E-05   9.87934952985393E-17  -1.07202003399080E-05
     -2.11685678832216E-13
      5.00000000000000E-01
      5.00000000000000E+00   4.99999999889750E+00   0.00000000000000E+00   0.00000000000000E+00   1.10251553274786E-05
      4.08920917403989E-17   1.10251553275195E-05   2.13434059344164E-13   0.00000000000000E+00   1.10251553275195E-09
      0.00000000000000E+00   0.00000000000000E+00  -1.10251553278137E-05   2.94126633241135E-16  -1.10251553275196E-05
     -2.15043331045695E-13
      5.10000000000000E-01
      5.10000000000000E+00   5.09999999885755E+00   0.00000000000000E+00   0.00000000000000E+00   1.14247803421003E-05
      3.89181267917274E-17   1.14247803421393E-05   2.16785397525109E-13   0.00000000000000E+00   1.14247803421393E-09
      0.00000000000000E+00   0.00000000000000E+00  -1.14247803424940E-05   3.54676338668155E-16  -1.14247803421393E-05
     -2.18394644027475E-13
      5.20000000000000E-01
      5.20000000000000E+00   5.19999999880181E+00   0.00000000000000E+00   0.00000000000000E+00   1.19817623645016E-05
      3.56470598042552E-17   1.19817623645373E-05   2.20129283487665E-13   0.00000000000000E+00   1.19817623645371E-09
      0.00000000000000E+00   0.00000000000000E+00  -1.19817623647448E-05   2.07482655125538E-16  -1.19817623645373E-05
     -2.21738491764703E-13
      5.30000000000000E-01
      5.30000000000000E+00   5.29999999871575E+00   0.00000000000000E+00   0.00000000000000E+00   1.28422528371524E-05
     -4.21019548133127E-21   1.28422528371524E-05   2.23462919977206E-13   0.00000000000000E+00   1.28422528371524E-09
      0.00000000000000E+00   0.00000000000000E+00  -1.28422528371438E-05  -8.61099065872266E-18  -1.28422528371524E-05
     -2.25072061623410E-13
      5.40000000000000E-01
      5.40000000000000E+00   5.39999999855425E+00   0.00000000000000E+00   0.00000000000000E+00   1.44577603227474E-05
     -2.99034048476494E-20   1.44577603227474E-05   2.26777255209282E-13   0.00000000000000E+00   1.44577603227473E-09
      0.00000000000000E+00   0.00000000000000E+00  -1.44577603226549E-05  -9.23770267800591E-17  -1.44577603227473E-05
     -2.28386245889033E-13
      5.50000000000000E-01
      5.50000000000000E+00   5.49999999807662E+00   0.00000000000000E+00   0.00000000000000E+00   1.92335384554129E-05
      7.34611065746969E-18   1.92335384554202E-05   2.30022525945552E-13   0.00000000000000E+00   1.92335384554192E-09
      0.00000000000000E+00   0.00000000000000E+00  -1.92335384553711E-05  -4.97065494187975E-17  -1.92335384554208E-05
     -2.31630876278759E-13
      5.60000000000000E-01
      5.60000000000000E+00   5.59999999514799E+00   0.00000000000000E+00   0.00000000000000E+00   4.85203077706157E-05
     -1.38438658453599E-17   4.85203077706019E-05   2.32751257686372E-13   0.00000000000000E+00   4.85203077706022E-09
      0.00000000000000E+00   0.00000000000000E+00  -4.85203077706383E-05   3.68757892231844E-17  -4.85203077706014E-05
     -2.34349765924201E-13
      5.70000000000000E-01
      5.70000000000000E+00   5.69999998874994E+00   0.00000000000000E+00   0.00000000000000E+00   1.12500424039889E-04
     -1.93528148249302E-17   1.12500424039870E-04   2.34752478213776E-13   0.00000000000000E+00   1.12500424039870E-08
      0.00000000000000E+00   0.00000000000000E+00  -1.12500424039751E-04  -1.19414640853174E-16  -1.12500424039871E-04
     -2.36294102361806E-13
      5.80000000000000E-01
      5.80000000000000E+00   5.79999998168867E+00   0.00000000000000E+00   0.00000000000000E+00   1.83113056655724E-04
     -1.14016154777347E-18   1.83113056655723E-04   2.36626772051531E-13   0.00000000000000E+00   1.83113056655723E-08
      0.00000000000000E+00   0.00000000000000E+00  -1.83113056655680E-04  -4.69863351407429E-17  -1.83113056655727E-04
     -2.38039784809077E-13
      5.90000000000000E-01
      5.90000000000000E+00   5.89999997411572E+00   0.00000000000000E+00   0.00000000000000E+00   2.58842555774321E-04
     -1.43781739988409E-20   2.58842555774321E-04   2.38456879729738E-13   0.00000000000000E+00   2.58842555774320E-08
      0.00000000000000E+00   0.00000000000000E+00  -2.58842555774312E-04  -2.07362468457256E-17  -2.58842555774333E-04
     -2.39671529869437E-13
      6.00000000000000E-01
      6.00000000000000E+00   5.99999996205797E+00   0.00000000000000E+00   0.00000000000000E+00   3.79420558946925E-04
      1.20806385699973E-15   3.79420558948133E-04   2.40106991049123E-13   0.00000000000000E+00   3.79420558947932E-08
      0.00000000000000E+00   0.00000000000000E+00  -3.79420558947688E-04  -4.52857393893898E-16  -3.79420558948141E-04
     -2.41126084515843E-13
      6.10000000000000E-01
      6.10000000000000E+00   6.09999993875084E+00   0.00000000000000E+00   0.00000000000000E+00   6.12491549650246E-04
      4.69502681731382E-19   6.12491549650246E-04   2.41328920404764E-13   0.00000000000000E+00   6.12491549650246E-08
      0.00000000000000E+00   0.00000000000000E+00  -6.12491549650211E-04  -3.73101486842556E-17  -6.12491549650249E-04
     -2.42167556150568E-13
      6.20000000000000E-01
      6.20000000000000E+00   6.19999991335754E+00   0.00000000000000E+00   0.00000000000000E+00   8.66424492076817E-04
     -4.89134419306722E-18   8.66424492076812E-04   2.42462539841672E-13   0.00000000000000E+00   8.66424492076810E-08
      0.00000000000000E+00   0.00000000000000E+00  -8.66424492076884E-04   7.71149595605150E-17  -8.66424492076807E-04
     -2.43161022487675E-13
      6.30000000000000E-01
      6.30000000000000E+00   6.29999988737883E+00   0.00000000000000E+00   0.00000000000000E+00   1.12621133511193E-03
     -6.95958922213126E-19   1.12621133511193E-03   2.43563901623626E-13   0.00000000000000E+00   1.12621133511193E-07
      0.00000000000000E+00   0.00000000000000E+00  -1.12621133511194E-03   1.37067068807272E-18  -1.12621133511194E-03
     -2.44165334815105E-13
      6.40000000000000E-01
      6.40000000000000E+00   6.39999986097594E+00   0.00000000000000E+00   0.00000000000000E+00   1.39024092982519E-03
      4.04800898736598E-19   1.39024092982519E-03   2.44639488206529E-13   0.00000000000000E+00   1.39024092982519E-07
      0.00000000000000E+00   0.00000000000000E+00  -1.39024092982521E-03   9.56479371371121E-18  -1.39024092982520E-03
     -2.45181385533115E-13
      6.50000000000000E-01
      6.50000000000000E+00   6.49999983419530E+00   0.00000000000000E+00   0.00000000000000E+00   1.65804695360098E-03
      3.27656465165894E-19   1.65804695360098E-03   2.45691551738239E-13   0.00000000000000E+00   1.65804695360098E-07
      0.00000000000000E+00   0.00000000000000E+00  -1.65804695360098E-03  -8.95854874746533E-18  -1.65804695360099E-03
     -2.46197427856363E-13
      6.60000000000000E-01
      6.60000000000000E+00   6.59999980705811E+00   0.00000000000000E+00   0.00000000000000E+00   1.92941876035439E-03
      5.40840545033323E-19   1.92941876035439E-03   2.46721362879878E-13   0.00000000000000E+00   1.92941876035439E-07
      0.00000000000000E+00   0.00000000000000E+00  -1.92941876035422E-03  -2.25701898212465E-16  -1.92941876035445E-03
     -2.47202766617531E-13
      6.70000000000000E-01
      6.70000000000000E+00   6.69999977957642E+00   0.00000000000000E+00   0.00000000000000E+00   2.20423635125044E-03
     -1.20334256236453E-18   2.20423635125044E-03   2.47729799599408E-13   0.00000000000000E+00   2.20423635125044E-07
      0.00000000000000E+00   0.00000000000000E+00  -2.20423635125037E-03  -7.10942339814089E-17  -2.20423635125044E-03
     -2.48192771085559E-13
      6.80000000000000E-01
      6.80000000000000E+00   6.79999975175813E+00   0.00000000000000E+00   0.00000000000000E+00   2.48241870860922E-03
     -2.11580360459866E-18   2.48241870860922E-03   2.48717540665768E-13   0.00000000000000E+00   2.48241870860922E-07
      0.00000000000000E+00   0.00000000000000E+00  -2.48241870860917E-03  -5.60820986454448E-17  -2.48241870860922E-03
     -2.49165795049345E-13
      6.90000000000000E-01
      6.90000000000000E+00   6.89999972360959E+00   0.00000000000000E+00   0.00000000000000E+00   2.76390404064864E-03
      3.30089694611851E-18   2.76390404064864E-03   2.49685148516716E-13   0.00000000000000E+00   2.76390404064864E-07
      0.00000000000000E+00   0.00000000000000E+00  -2.76390404064866E-03  -2.48361131680257E-17  -2.76390404064868E-03
     -2.50121232941330E-13
      7.00000000000000E-01
      7.00000000000000E+00   6.99999969513589E+00   0.00000000000000E+00   0.00000000000000E+00   3.04864117138836E-03
     -6.72456137791944E-19   3.04864117138836E-03   2.50633110268972E-13   0.00000000000000E+00   3.04864117138835E-07
      0.00000000000000E+00   0.00000000000000E+00  -3.04864117138835E-03  -2.15980839847368E-18  -3.04864117138835E-03
     -2.51058885109393E-13
      7.10000000000000E-01
      7.10000000000000E+00   7.09999966634146E+00   0.00000000000000E+00   0.00000000000000E+00   3.33658512590208E-03
     -2.57369314579252E-18   3.33658512590208E-03   2.51561861274445E-13   0.00000000000000E+00   3.33658512590207E-07
      0.00000000000000E+00   0.00000000000000E+00  -3.33658512590207E-03  -3.83513688076531E-17  -3.33658512590211E-03
     -2.51978741804786E-13
      7.20000000000000E-01