DF-ISE text

Info {
  version   = 1.0
  type      = xyplot
  datasets  = [
    "time"
    "ntype OuterVoltage" "ntype InnerVoltage" "ntype QuasiFermiPotential" "ntype DisplacementCurrent" "ntype eCurrent"
    "ntype hCurrent" "ntype TotalCurrent" "ntype Charge" "ptype OuterVoltage" "ptype InnerVoltage"
    "ptype QuasiFermiPotential" "ptype DisplacementCurrent" "ptype eCurrent" "ptype hCurrent" "ptype TotalCurrent"
    "ptype Charge" ]
  functions = [
    Time
    OuterVoltage InnerVoltage QuasiFermiPotential DisplacementCurrent eCurrent
    hCurrent TotalCurrent Charge OuterVoltage InnerVoltage
    QuasiFermiPotential DisplacementCurrent eCurrent hCurrent TotalCurrent
    Charge ]
}

Data {
      1.00000000000000E-02
      1.00000000000000E-01   9.99999999926520E-02   0.00000000000000E+00   0.00000000000000E+00   7.34834348863942E-08
     -1.31947044478608E-16   7.34834347544471E-08   1.06478340218696E-13   0.00000000000000E+00   7.34834347544582E-12
      0.00000000000000E+00   0.00000000000000E+00  -7.34834342803963E-08  -4.74032675431987E-16  -7.34834347544290E-08
     -1.08561747917655E-13
      2.00000000000000E-02
      2.00000000000000E-01   1.99999999992432E-01   0.00000000000000E+00   0.00000000000000E+00   7.56805826034705E-08
     -1.28942161367521E-17   7.56805825905762E-08   1.16134659828553E-13   0.00000000000000E+00   7.56805825905810E-12
      0.00000000000000E+00   0.00000000000000E+00  -7.56805825199965E-08  -7.06057842561219E-17  -7.56805825906023E-08
     -1.18218067535743E-13
      3.00000000000000E-02
      3.00000000000000E-01   2.99999999992231E-01   0.00000000000000E+00   0.00000000000000E+00   7.76714458965470E-08
     -6.89989324835672E-18   7.76714458896472E-08   1.25223905787660E-13   0.00000000000000E+00   7.76714458896478E-12
      0.00000000000000E+00   0.00000000000000E+00  -7.76714458261772E-08  -6.34820785314780E-17  -7.76714458896593E-08
     -1.27307313503605E-13
      4.00000000000000E-02
      4.00000000000000E-01   3.99999999992049E-01   0.00000000000000E+00   0.00000000000000E+00   7.95295920871799E-08
     -6.88424144010179E-18   7.95295920802956E-08   1.33832940309297E-13   0.00000000000000E+00   7.95295920802957E-12
      0.00000000000000E+00   0.00000000000000E+00  -7.95295919889837E-08  -9.13308324744530E-17  -7.95295920803145E-08
     -1.35916348034407E-13
      5.00000000000000E-02
      5.00000000000000E-01   4.99999999991878E-01   0.00000000000000E+00   0.00000000000000E+00   8.12516022271819E-08
     -6.66027465371950E-18   8.12516022205216E-08   1.42026364053311E-13   0.00000000000000E+00   8.12516022205215E-12
      0.00000000000000E+00   0.00000000000000E+00  -8.12516021418238E-08  -7.86879929285536E-17  -8.12516022205118E-08
     -1.44109771787926E-13
      6.00000000000000E-02
      6.00000000000000E-01   5.99999999991703E-01   0.00000000000000E+00   0.00000000000000E+00   8.29431653088594E-08
     -5.92631899659219E-18   8.29431653029331E-08   1.49853929108934E-13   0.00000000000000E+00   8.29431653029330E-12
      0.00000000000000E+00   0.00000000000000E+00  -8.29431652703150E-08  -3.26435895031386E-17  -8.29431653029586E-08
     -1.51937336853251E-13
      7.00000000000000E-02
      7.00000000000000E-01   6.99999999991534E-01   0.00000000000000E+00   0.00000000000000E+00   8.46231706929656E-08
     -5.43196147565598E-18   8.46231706875336E-08   1.57355265074827E-13   0.00000000000000E+00   8.46231706875338E-12
      0.00000000000000E+00   0.00000000000000E+00  -8.46231706919307E-08   4.39196278599091E-18  -8.46231706875387E-08
     -1.59438672828943E-13
      8.00000000000000E-02
      8.00000000000000E-01   7.99999999991375E-01   0.00000000000000E+00   0.00000000000000E+00   8.62189616975053E-08
     -5.16479411716907E-18   8.62189616923405E-08   1.64563020548609E-13   0.00000000000000E+00   8.62189616923407E-12
      0.00000000000000E+00   0.00000000000000E+00  -8.62189617379000E-08   4.55707282688516E-17  -8.62189616923293E-08
     -1.66646428312512E-13
      9.00000000000000E-02
      9.00000000000000E-01   8.99999999991231E-01   0.00000000000000E+00   0.00000000000000E+00   8.77326236416930E-08
     -5.38016967253909E-18   8.77326236363129E-08   1.71504637398610E-13   0.00000000000000E+00   8.77326236363130E-12
      0.00000000000000E+00   0.00000000000000E+00  -8.77326236495556E-08   1.32377047039008E-17  -8.77326236363179E-08
     -1.73588045172190E-13
      1.00000000000000E-01
      1.00000000000000E+00   9.99999999991075E-01   0.00000000000000E+00   0.00000000000000E+00   8.92281953795766E-08
     -9.68540503622804E-18   8.92281953698912E-08   1.78201826484569E-13   0.00000000000000E+00   8.92281953698906E-12
      0.00000000000000E+00   0.00000000000000E+00  -8.92281953455348E-08  -2.44140650094089E-17  -8.92281953699489E-08
     -1.80285234267573E-13
      1.10000000000000E-01
      1.10000000000000E+00   1.09999999999092E+00   0.00000000000000E+00   0.00000000000000E+00   9.07627587003039E-08
     -6.05939943772051E-17   9.07627586397099E-08   1.84664177168603E-13   0.00000000000000E+00   9.07627586396913E-12
      0.00000000000000E+00   0.00000000000000E+00  -9.07627587466875E-08   1.06951714941906E-16  -9.07627586397358E-08
     -1.86747584960634E-13
      1.20000000000000E-01
      1.20000000000000E+00   1.19999999999077E+00   0.00000000000000E+00   0.00000000000000E+00   9.23336687176229E-08
      1.42769492020820E-21   9.23336687176244E-08   1.90865510843125E-13   0.00000000000000E+00   9.23336687176241E-12
      0.00000000000000E+00   0.00000000000000E+00  -9.23336687438179E-08   2.61827290086880E-17  -9.23336687176352E-08
     -1.92948918643580E-13
      1.30000000000000E-01
      1.30000000000000E+00   1.29999999999060E+00   0.00000000000000E+00   0.00000000000000E+00   9.38941004725422E-08
     -1.66573689391338E-21   9.38941004725406E-08   1.96679661894284E-13   0.00000000000000E+00   9.38941004725408E-12
      0.00000000000000E+00   0.00000000000000E+00  -9.38941003987706E-08  -7.37577631932660E-17  -9.38941004725284E-08
     -1.98763069702159E-13
      1.40000000000000E-01
      1.40000000000000E+00   1.39999999999045E+00   0.00000000000000E+00   0.00000000000000E+00   9.54746334261663E-08
     -1.89316865926205E-20   9.54746334261474E-08   2.01947805276293E-13   0.00000000000000E+00   9.54746334261474E-12
      0.00000000000000E+00   0.00000000000000E+00  -9.54746334258393E-08  -2.89665604744678E-19  -9.54746334261290E-08
     -2.04031213090353E-13
      1.50000000000000E-01
      1.50000000000000E+00   1.49999999999030E+00   0.00000000000000E+00   0.00000000000000E+00   9.70658703084810E-08
     -5.42790548428838E-21   9.70658703084756E-08   2.06963836391273E-13   0.00000000000000E+00   9.70658703084755E-12
      0.00000000000000E+00   0.00000000000000E+00  -9.70658703259736E-08   1.75201452329841E-17  -9.70658703084535E-08
     -2.09047244210826E-13
      1.60000000000000E-01
      1.60000000000000E+00   1.59999999999016E+00   0.00000000000000E+00   0.00000000000000E+00   9.84241717277500E-08
     -2.57742499588550E-19   9.84241717274922E-08   2.11914859737703E-13   0.00000000000000E+00   9.84241717274919E-12
      0.00000000000000E+00   0.00000000000000E+00  -9.84241719604845E-08   2.33026666027107E-16  -9.84241717274579E-08
     -2.13998267562446E-13
      1.70000000000000E-01
      1.70000000000000E+00   1.69999999999003E+00   0.00000000000000E+00   0.00000000000000E+00   9.96616584054165E-08
     -1.54073102048617E-19   9.96616584052624E-08   2.16825752385757E-13   0.00000000000000E+00   9.96616584052625E-12
      0.00000000000000E+00   0.00000000000000E+00  -9.96616585369461E-08   1.31695720274131E-16  -9.96616584052504E-08
     -2.18909160215340E-13
      1.80000000000000E-01
      1.80000000000000E+00   1.79999999998990E+00   0.00000000000000E+00   0.00000000000000E+00   1.00953901806831E-07
     -1.01429389658339E-19   1.00953901806729E-07   2.21704824494842E-13   0.00000000000000E+00   1.00953901806730E-11
      0.00000000000000E+00   0.00000000000000E+00  -1.00953901861649E-07   5.49080516709551E-17  -1.00953901806741E-07
     -2.23788232328838E-13
      1.90000000000000E-01
      1.90000000000000E+00   1.89999999998977E+00   0.00000000000000E+00   0.00000000000000E+00   1.02325879443006E-07
      5.31064473817462E-16   1.02325879974070E-07   2.26557173032361E-13   0.00000000000000E+00   1.02325879974733E-11
      0.00000000000000E+00   0.00000000000000E+00  -1.02325830642737E-07  -4.93313473000182E-14  -1.02325879974085E-07
     -2.28640580870317E-13
      2.00000000000000E-01
      2.00000000000000E+00   1.99999999998964E+00   0.00000000000000E+00   0.00000000000000E+00   1.03759082596031E-07
      5.05711437291548E-16   1.03759083101742E-07   2.31386268293175E-13   0.00000000000000E+00   1.03759083102577E-11
      0.00000000000000E+00   0.00000000000000E+00  -1.03759002392616E-07  -8.07091218328773E-14  -1.03759083101738E-07
     -2.33469676134648E-13
      2.10000000000000E-01
      2.10000000000000E+00   2.09999999998947E+00   0.00000000000000E+00   0.00000000000000E+00   1.05216186754256E-07
      4.96579280947078E-16   1.05216187250835E-07   2.36194579358486E-13   0.00000000000000E+00   1.05216187251497E-11
      0.00000000000000E+00   0.00000000000000E+00  -1.05215998667073E-07  -1.88583754640964E-13  -1.05216187250828E-07
     -2.38277987203059E-13
      2.20000000000000E-01
      2.20000000000000E+00   2.19999999998934E+00   0.00000000000000E+00   0.00000000000000E+00   1.06675705315857E-07
      4.97824870061465E-16   1.06675705813682E-07   2.40983939733817E-13   0.00000000000000E+00   1.06675705814010E-11
      0.00000000000000E+00   0.00000000000000E+00  -1.06675529044352E-07  -1.76769338031105E-13  -1.06675705813690E-07
     -2.43067347581083E-13
      2.30000000000000E-01
      2.30000000000000E+00   2.29999999998918E+00   0.00000000000000E+00   0.00000000000000E+00   1.08166122572333E-07
      4.99561396258926E-16   1.08166123071895E-07   2.45755774611393E-13   0.00000000000000E+00   1.08166123072002E-11
      0.00000000000000E+00   0.00000000000000E+00  -1.08166111685999E-07  -1.13858790359491E-14  -1.08166123071878E-07
     -2.47839182460982E-13
      2.40000000000000E-01
      2.40000000000000E+00   2.39999999998901E+00   0.00000000000000E+00   0.00000000000000E+00   1.09740957454343E-07
      4.99686121021743E-16   1.09740957954029E-07   2.50511241683675E-13   0.00000000000000E+00   1.09740957954049E-11
      0.00000000000000E+00   0.00000000000000E+00  -1.09740957975420E-07   2.13987390816296E-17  -1.09740957954021E-07
     -2.52594649535211E-13
      2.50000000000000E-01
      2.50000000000000E+00   2.49999999998887E+00   0.00000000000000E+00   0.00000000000000E+00   1.11454607461884E-07
      4.99731693942434E-16   1.11454607961616E-07   2.55251314378163E-13   0.00000000000000E+00   1.11454607961657E-11
      0.00000000000000E+00   0.00000000000000E+00  -1.11454589458740E-07  -1.85028616525517E-14  -1.11454607961602E-07
     -2.57334722231271E-13
      2.60000000000000E-01
      2.60000000000000E+00   2.59999999998868E+00   0.00000000000000E+00   0.00000000000000E+00   1.13363666009779E-07
      5.01311353137260E-16   1.13363666511091E-07   2.59976827551125E-13   0.00000000000000E+00   1.13363666511241E-11
      0.00000000000000E+00   0.00000000000000E+00  -1.13363584535027E-07  -8.19760566741225E-14  -1.13363666511084E-07
     -2.62060235405448E-13
      2.70000000000000E-01
      2.70000000000000E+00   2.69999999998844E+00   0.00000000000000E+00   0.00000000000000E+00   1.15522217875265E-07
      5.05206123004869E-16   1.15522218380472E-07   2.64688501215117E-13   0.00000000000000E+00   1.15522218380810E-11
      0.00000000000000E+00   0.00000000000000E+00  -1.15522001162537E-07  -2.17217919009884E-13  -1.15522218380456E-07
     -2.66771909070281E-13
      2.80000000000000E-01
      2.80000000000000E+00   2.79999999998821E+00   0.00000000000000E+00   0.00000000000000E+00   1.17960450820449E-07
      5.12524973384097E-16   1.17960451332974E-07   2.69386953122626E-13   0.00000000000000E+00   1.17960451333507E-11
      0.00000000000000E+00   0.00000000000000E+00  -1.17959987948219E-07  -4.63384784587886E-13  -1.17960451333004E-07
     -2.71470360978305E-13
      2.90000000000000E-01
      2.90000000000000E+00   2.89999999998794E+00   0.00000000000000E+00   0.00000000000000E+00   1.20669353557476E-07
      5.24835353781364E-16   1.20669354082312E-07   2.74072706857626E-13   0.00000000000000E+00   1.20669354082930E-11
      0.00000000000000E+00   0.00000000000000E+00  -1.20669267869747E-07  -8.62125740968694E-14  -1.20669354082322E-07
     -2.76156114713502E-13
      3.00000000000000E-01
      3.00000000000000E+00   2.99999999998765E+00   0.00000000000000E+00   0.00000000000000E+00   1.23612870511010E-07
      5.46108111814974E-16   1.23612871057118E-07   2.78746199339827E-13   0.00000000000000E+00   1.23612871057576E-11
      0.00000000000000E+00   0.00000000000000E+00  -1.23612834808643E-07  -3.62484590242518E-14  -1.23612871057102E-07
     -2.80829607195588E-13
      3.10000000000000E-01
      3.10000000000000E+00   3.09999999998731E+00   0.00000000000000E+00   0.00000000000000E+00   1.26773722701419E-07
      5.72253417197694E-16   1.26773723273672E-07   2.83407789738282E-13   0.00000000000000E+00   1.26773723273890E-11
      0.00000000000000E+00   0.00000000000000E+00  -1.26773627064295E-07  -9.62093967022425E-14  -1.26773723273691E-07
     -2.85491197593679E-13
      3.20000000000000E-01
      3.20000000000000E+00   3.19999999998699E+00   0.00000000000000E+00   0.00000000000000E+00   1.30182499373475E-07
      5.97086308662528E-16   1.30182499970562E-07   2.88057771519940E-13   0.00000000000000E+00   1.30182499970608E-11
      0.00000000000000E+00   0.00000000000000E+00  -1.30182247185075E-07  -2.52785490197954E-13  -1.30182499970566E-07
     -2.90141179374687E-13
      3.30000000000000E-01
      3.30000000000000E+00   3.29999999998661E+00   0.00000000000000E+00   0.00000000000000E+00   1.33911773274912E-07
      6.18710243632218E-16   1.33911773893622E-07   2.92696387334248E-13   0.00000000000000E+00   1.33911773893577E-11
      0.00000000000000E+00   0.00000000000000E+00  -1.33911207739117E-07  -5.66154519839348E-13  -1.33911773893637E-07
     -2.94779795188064E-13
      3.40000000000000E-01
      3.40000000000000E+00   3.39999999998619E+00   0.00000000000000E+00   0.00000000000000E+00   1.38055928834596E-07
      6.35584062340703E-16   1.38055929470181E-07   2.97323844831267E-13   0.00000000000000E+00   1.38055929470152E-11
      0.00000000000000E+00   0.00000000000000E+00  -1.38055929119568E-07  -3.50608312101650E-16  -1.38055929470176E-07
     -2.99407252683753E-13
      3.50000000000000E-01
      3.50000000000000E+00   3.49999999998573E+00   0.00000000000000E+00   0.00000000000000E+00   1.42714528853287E-07
      6.50523245199645E-16   1.42714529503810E-07   3.01940331344624E-13   0.00000000000000E+00   1.42714529503807E-11
      0.00000000000000E+00   0.00000000000000E+00  -1.42714502368916E-07  -2.71348962474505E-14  -1.42714529503812E-07
     -3.04023739195329E-13
      3.60000000000000E-01
      3.60000000000000E+00   3.59999999998520E+00   0.00000000000000E+00   0.00000000000000E+00   1.47995583647931E-07
      6.62461742781001E-16   1.47995584310392E-07   3.06546025526098E-13   0.00000000000000E+00   1.47995584310465E-11
      0.00000000000000E+00   0.00000000000000E+00  -1.47995565825777E-07  -1.84846021538864E-14  -1.47995584310379E-07
     -3.08629433374512E-13
      3.70000000000000E-01
      3.70000000000000E+00   3.69999999998460E+00   0.00000000000000E+00   0.00000000000000E+00   1.54016711403258E-07
      6.71589632993079E-16   1.54016712074848E-07   3.11141105373189E-13   0.00000000000000E+00   1.54016712075057E-11
      0.00000000000000E+00   0.00000000000000E+00  -1.54016701111368E-07  -1.09634716124713E-14  -1.54016712074840E-07
     -3.13224513218608E-13
      3.80000000000000E-01
      3.80000000000000E+00   3.79999999998393E+00   0.00000000000000E+00   0.00000000000000E+00   1.60906923946953E-07
      6.79118969645951E-16   1.60906924626072E-07   3.15725752059060E-13   0.00000000000000E+00   1.60906924626439E-11
      0.00000000000000E+00   0.00000000000000E+00  -1.60906917472554E-07  -7.15351405448795E-15  -1.60906924626068E-07
     -3.17809159900683E-13
      3.90000000000000E-01
      3.90000000000000E+00   3.89999999998314E+00   0.00000000000000E+00   0.00000000000000E+00   1.68798970849817E-07
      6.89042343867864E-16   1.68798971538859E-07   3.20300149970207E-13   0.00000000000000E+00   1.68798971539309E-11
      0.00000000000000E+00   0.00000000000000E+00  -1.68798966612252E-07  -4.92660179238884E-15  -1.68798971538854E-07
     -3.22383557807030E-13
      4.00000000000000E-01
      4.00000000000000E+00   3.99999999998224E+00   0.00000000000000E+00   0.00000000000000E+00   1.77819506441196E-07
      7.08012626143939E-16   1.77819507149209E-07   3.24864483546560E-13   0.00000000000000E+00   1.77819507149586E-11
      0.00000000000000E+00   0.00000000000000E+00  -1.77819503342112E-07  -3.80708269117724E-15  -1.77819507149195E-07
     -3.26947891377333E-13
      4.10000000000000E-01
      4.10000000000000E+00   4.09999999998121E+00   0.00000000000000E+00   0.00000000000000E+00   1.88100020656796E-07
      7.38417766328584E-16   1.88100021395214E-07   3.29418931590017E-13   0.00000000000000E+00   1.88100021395426E-11
      0.00000000000000E+00   0.00000000000000E+00  -1.88100012471834E-07  -8.92336006871541E-15  -1.88100021395194E-07
     -3.31502339413228E-13
      4.20000000000000E-01
      4.20000000000000E+00   4.19999999998003E+00   0.00000000000000E+00   0.00000000000000E+00   1.99817258795538E-07
      7.75307498022164E-16   1.99817259570846E-07   3.33963660259186E-13   0.00000000000000E+00   1.99817259570910E-11
      0.00000000000000E+00   0.00000000000000E+00  -1.99817227382288E-07  -3.21885599420643E-14  -1.99817259570847E-07
     -3.36047068072955E-13
      4.30000000000000E-01
      4.30000000000000E+00   4.29999999997865E+00   0.00000000000000E+00   0.00000000000000E+00   2.13233043720306E-07
      8.13514769257029E-16   2.13233044533821E-07   3.38498816849504E-13   0.00000000000000E+00   2.13233044533793E-11
      0.00000000000000E+00   0.00000000000000E+00  -2.13232937419526E-07  -1.07114305525170E-13  -2.13233044533831E-07
     -3.40582224651422E-13
      4.40000000000000E-01
      4.40000000000000E+00   4.39999999997716E+00   0.00000000000000E+00   0.00000000000000E+00   2.28707669099852E-07
      8.51301596092323E-16   2.28707669951153E-07   3.43024526065764E-13   0.00000000000000E+00   2.28707669951074E-11
      0.00000000000000E+00   0.00000000000000E+00  -2.28707368139850E-07  -3.01811306757068E-13  -2.28707669951156E-07
     -3.45107933852660E-13
      4.50000000000000E-01
      4.50000000000000E+00   4.49999999997531E+00   0.00000000000000E+00   0.00000000000000E+00   2.46699587619475E-07
      8.88441162819712E-16   2.46699588507916E-07   3.47540889131920E-13   0.00000000000000E+00   2.46699588507817E-11
      0.00000000000000E+00   0.00000000000000E+00  -2.46698842039325E-07  -7.46468606442986E-13  -2.46699588507932E-07
     -3.49624296899598E-13
      4.60000000000000E-01
      4.60000000000000E+00   4.59999999997326E+00   0.00000000000000E+00   0.00000000000000E+00   2.67774582959142E-07
      9.23970459453942E-16   2.67774583883112E-07   3.52047985357988E-13   0.00000000000000E+00   2.67774583883080E-11
      0.00000000000000E+00   0.00000000000000E+00  -2.67774428649168E-07  -1.55233981218096E-13  -2.67774583883149E-07
     -3.54131393100778E-13
      4.70000000000000E-01
      4.70000000000000E+00   4.69999999997073E+00   0.00000000000000E+00   0.00000000000000E+00   2.92623339183278E-07
      9.58476969383886E-16   2.92623340141755E-07   3.56545875947884E-13   0.00000000000000E+00   2.92623340141835E-11
      0.00000000000000E+00   0.00000000000000E+00  -2.92623314675436E-07  -2.54663136844815E-14  -2.92623340141750E-07
     -3.58629283658088E-13
      4.80000000000000E-01
      4.80000000000000E+00   4.79999999996781E+00   0.00000000000000E+00   0.00000000000000E+00   3.22098790289608E-07
      9.88530631405142E-16   3.22098791278138E-07   3.61034609109250E-13   0.00000000000000E+00   3.22098791278360E-11
      0.00000000000000E+00   0.00000000000000E+00  -3.22098767243152E-07  -2.40349510821259E-14  -3.22098791278103E-07
     -3.63118016776311E-13
      4.90000000000000E-01
      4.90000000000000E+00   4.89999999996429E+00   0.00000000000000E+00   0.00000000000000E+00   3.57258132606518E-07
      1.01022620328838E-15   3.57258133616744E-07   3.65514226019971E-13   0.00000000000000E+00   3.57258133617051E-11
      0.00000000000000E+00   0.00000000000000E+00  -3.57258122452136E-07  -1.11646118203295E-14  -3.57258133616748E-07
     -3.67597633629238E-13
      5.00000000000000E-01
      5.00000000000000E+00   4.99999999996009E+00   0.00000000000000E+00   0.00000000000000E+00   3.99434551721790E-07
      1.02718428995253E-15   3.99434552748975E-07   3.69984765984089E-13   0.00000000000000E+00   3.99434552749233E-11
      0.00000000000000E+00   0.00000000000000E+00  -3.99434553701858E-07   9.52897735997756E-16  -3.99434552748960E-07
     -3.72068173515014E-13
      5.10000000000000E-01
      5.10000000000000E+00   5.09999999995494E+00   0.00000000000000E+00   0.00000000000000E+00   4.50363566826760E-07
      1.04691899073141E-15   4.50363567873679E-07   3.74446269239315E-13   0.00000000000000E+00   4.50363567873816E-11
      0.00000000000000E+00   0.00000000000000E+00  -4.50363576835609E-07   8.96190405670346E-15  -4.50363567873705E-07
     -3.76529676662602E-13
      5.20000000000000E-01
      5.20000000000000E+00   5.19999999994878E+00   0.00000000000000E+00   0.00000000000000E+00   5.12372547028575E-07
      1.06777605399897E-15   5.12372548096351E-07   3.78898776400054E-13   0.00000000000000E+00   5.12372548096412E-11
      0.00000000000000E+00   0.00000000000000E+00  -5.12372561665568E-07   1.35692375682409E-14  -5.12372548096331E-07
     -3.80982183673125E-13
      5.30000000000000E-01
      5.30000000000000E+00   5.29999999994116E+00   0.00000000000000E+00   0.00000000000000E+00   5.88648885670212E-07
      1.08397375560056E-15   5.88648886754185E-07   3.83342323668496E-13   0.00000000000000E+00   5.88648886754243E-11
      0.00000000000000E+00   0.00000000000000E+00  -5.88648901695751E-07   1.49415858246006E-14  -5.88648886754165E-07
     -3.85425730727917E-13
      5.40000000000000E-01
      5.40000000000000E+00   5.39999999993166E+00   0.00000000000000E+00   0.00000000000000E+00   6.83684515095924E-07
      8.58354548836208E-20   6.83684515096010E-07   3.87776931378511E-13   0.00000000000000E+00   6.83684515096009E-11
      0.00000000000000E+00   0.00000000000000E+00  -6.83684515053803E-07  -4.21903350242817E-17  -6.83684515095994E-07
     -3.89860338127291E-13
      5.50000000000000E-01
      5.50000000000000E+00   5.49999999991957E+00   0.00000000000000E+00   0.00000000000000E+00   8.04152016313013E-07
      2.45825380885099E-20   8.04152016313038E-07   3.92202580109126E-13   0.00000000000000E+00   8.04152016313038E-11
      0.00000000000000E+00   0.00000000000000E+00  -8.04152016356712E-07   4.36491694949360E-17  -8.04152016313063E-07
     -3.94285986393169E-13
      5.60000000000000E-01
      5.60000000000000E+00   5.59999999990390E+00   0.00000000000000E+00   0.00000000000000E+00   9.60960032089273E-07
     -5.54709186010533E-20   9.60960032089217E-07   3.96619156942105E-13   0.00000000000000E+00   9.60960032089219E-11
      0.00000000000000E+00   0.00000000000000E+00  -9.60960032106616E-07   1.74070810228771E-17  -9.60960032089209E-07
     -3.98702562501587E-13
      5.70000000000000E-01
      5.70000000000000E+00   5.69999999988246E+00   0.00000000000000E+00   0.00000000000000E+00   1.17586017574928E-06
      8.48195616082464E-21   1.17586017574929E-06   4.01026287216192E-13   0.00000000000000E+00   1.17586017574929E-10
      0.00000000000000E+00   0.00000000000000E+00  -1.17586017557122E-06  -1.78058146572410E-16  -1.17586017574928E-06
     -4.03109691556307E-13
      5.80000000000000E-01
      5.80000000000000E+00   5.79999999984758E+00   0.00000000000000E+00   0.00000000000000E+00   1.52445136955574E-06
     -4.49533955702943E-20   1.52445136955570E-06   4.05422174933750E-13   0.00000000000000E+00   1.52445136955570E-10
      0.00000000000000E+00   0.00000000000000E+00  -1.52445136970269E-06   1.46994519783802E-16  -1.52445136955569E-06
     -4.07505576635107E-13
      5.85000000000000E-01
      5.85000000000000E+00   5.84999999980307E+00   0.00000000000000E+00   0.00000000000000E+00   1.96963348839163E-06
      2.66955339960450E-20   1.96963348839165E-06   4.07609594337677E-13   0.00000000000000E+00   1.96963348839165E-10
      0.00000000000000E+00   0.00000000000000E+00  -1.96963348838142E-06  -1.02262007102456E-17  -1.96963348839165E-06
     -4.09692990743090E-13
      5.87250000000000E-01
      5.87250000000000E+00   5.87249999966592E+00   0.00000000000000E+00   0.00000000000000E+00   3.34110558010153E-06
     -4.15619092153995E-21   3.34110558010152E-06   4.08557950260528E-13   0.00000000000000E+00   3.34110558010153E-10
      0.00000000000000E+00   0.00000000000000E+00  -3.34110558004342E-06  -5.81864529921968E-17  -3.34110558010160E-06
     -4.10641313738158E-13
      5.88225000000000E-01
      5.88225000000000E+00   5.88224999924723E+00   0.00000000000000E+00   0.00000000000000E+00   7.52754525248472E-06
     -5.56186480743624E-19   7.52754525248417E-06   4.08859429756889E-13   0.00000000000000E+00   7.52754525248420E-10
      0.00000000000000E+00   0.00000000000000E+00  -7.52754525221310E-06  -2.71256388203418E-16  -7.52754525248436E-06
     -4.10942548805197E-13
      5.89720000000000E-01
      5.89720000000000E+00   5.89719999810591E+00   0.00000000000000E+00   0.00000000000000E+00   1.89410407636537E-05
     -7.96260511022348E-19   1.89410407636529E-05   4.09169552174842E-13   0.00000000000000E+00   1.89410407636530E-09
      0.00000000000000E+00   0.00000000000000E+00  -1.89410407633695E-05  -2.83086291541321E-16  -1.89410407636526E-05
     -4.11250922919822E-13
      5.92211666666667E-01
      5.92211666666667E+00   5.92211666272328E+00   0.00000000000000E+00   0.00000000000000E+00   3.94336706827915E-05
     -5.69458641357939E-19   3.94336706827909E-05   4.09642104721829E-13   0.00000000000000E+00   3.94336706827909E-09
      0.00000000000000E+00   0.00000000000000E+00  -3.94336706825466E-05  -2.44349163435916E-16  -3.94336706827909E-05
     -4.11716417522939E-13
      5.96530555555556E-01
      5.96530555555556E+00   5.96530554798957E+00   0.00000000000000E+00   0.00000000000000E+00   7.56600149362119E-05
     -6.91258365328889E-21   7.56600149362119E-05   4.10447391428552E-13   0.00000000000000E+00   7.56600149362118E-09
      0.00000000000000E+00   0.00000000000000E+00  -7.56600149362487E-05   3.48587205951429E-17  -7.56600149362138E-05
     -4.12496966879616E-13
      5.98402074074074E-01
      5.98402074074074E+00   5.98402073145216E+00   0.00000000000000E+00   0.00000000000000E+00   9.28860719785464E-05
     -3.92634751506809E-20   9.28860719785464E-05   4.10787403384980E-13   0.00000000000000E+00   9.28860719785466E-09
      0.00000000000000E+00   0.00000000000000E+00  -9.28860719785075E-05  -4.14890534088139E-17  -9.28860719785490E-05
     -4.12820907058534E-13
      5.98807569753087E-01
      5.98807569753087E+00   5.98807568770193E+00   0.00000000000000E+00   0.00000000000000E+00   9.82891420473334E-05
     -1.52414174454636E-17   9.82891420473181E-05   4.10852282991890E-13   0.00000000000000E+00   9.82891420473178E-09
      0.00000000000000E+00   0.00000000000000E+00  -9.82891420468639E-05  -4.56493396953899E-16  -9.82891420473204E-05
     -4.12881775438918E-13
      5.99537461975309E-01
      5.99537461975309E+00   5.99537460796371E+00   0.00000000000000E+00   0.00000000000000E+00   1.17894016492318E-04
     -1.21574097240507E-16   1.17894016492197E-04   4.10917306039463E-13   0.00000000000000E+00   1.17894016492197E-08
      0.00000000000000E+00   0.00000000000000E+00  -1.17894016486935E-04  -5.26427703794987E-15  -1.17894016492199E-04
     -4.12938640129226E-13
      6.00364673160494E-01
      6.00364673160494E+00   6.00364671672167E+00   0.00000000000000E+00   0.00000000000000E+00   1.48832886837707E-04
     -3.53924283048391E-20   1.48832886837707E-04   4.10945348482708E-13   0.00000000000000E+00   1.48832886837707E-08
      0.00000000000000E+00   0.00000000000000E+00  -1.48832886837754E-04   4.54933364059539E-17  -1.48832886837708E-04
     -4.12955827134569E-13
      6.01798505881482E-01
      6.01798505881482E+00   6.01798503834107E+00   0.00000000000000E+00   0.00000000000000E+00   2.04737163227804E-04
      2.07654012944798E-18   2.04737163227806E-04   4.10982125381170E-13   0.00000000000000E+00   2.04737163227805E-08
      0.00000000000000E+00   0.00000000000000E+00  -2.04737163228029E-04   2.17972854240029E-16  -2.04737163227811E-04
     -4.12970056756293E-13
      6.04379404779259E-01
      6.04379404779259E+00   6.04379401716570E+00   0.00000000000000E+00   0.00000000000000E+00   3.06268824627093E-04
      1.78068154908722E-19   3.06268824627094E-04   4.11043931561189E-13   0.00000000000000E+00   3.06268824627094E-08
      0.00000000000000E+00   0.00000000000000E+00  -3.06268824627300E-04   2.06559070369775E-16  -3.06268824627093E-04
     -4.12978500004586E-13
      6.09025022795259E-01
      6.09025022795259E+00   6.09025017899105E+00   0.00000000000000E+00   0.00000000000000E+00   4.89615270374894E-04
     -6.41487763025209E-20   4.89615270374894E-04   4.11153206932843E-13   0.00000000000000E+00   4.89615270374894E-08
      0.00000000000000E+00   0.00000000000000E+00  -4.89615270374914E-04   2.00813929178941E-17  -4.89615270374894E-04
     -4.12944456917430E-13
      6.17077427356326E-01