DF-ISE text

Info {
  version   = 1.0
  type      = xyplot
  datasets  = [
    "time"
    "ntype OuterVoltage" "ntype InnerVoltage" "ntype QuasiFermiPotential" "ntype DisplacementCurrent" "ntype eCurrent"
    "ntype hCurrent" "ntype TotalCurrent" "ntype Charge" "ptype OuterVoltage" "ptype InnerVoltage"
    "ptype QuasiFermiPotential" "ptype DisplacementCurrent" "ptype eCurrent" "ptype hCurrent" "ptype TotalCurrent"
    "ptype Charge" ]
  functions = [
    Time
    OuterVoltage InnerVoltage QuasiFermiPotential DisplacementCurrent eCurrent
    hCurrent TotalCurrent Charge OuterVoltage InnerVoltage
    QuasiFermiPotential DisplacementCurrent eCurrent hCurrent TotalCurrent
    Charge ]
}

Data {
      1.00000000000000E-02
      1.00000000000000E-01   9.99999998894984E-02   0.00000000000000E+00   0.00000000000000E+00   1.10501223244993E-06
     -6.70659080035157E-17   1.10501223238286E-06  -8.26041356954806E-30   0.00000000000000E+00   1.10501223238392E-10
      0.00000000000000E+00   0.00000000000000E+00  -1.10501223230297E-06  -7.98941008445994E-17  -1.10501223238286E-06
      1.99761991122119E-27
      2.00000000000000E-02
      2.00000000000000E-01   1.99999999888532E-01   0.00000000000000E+00   0.00000000000000E+00   1.11468372342931E-06
     -1.95106567533189E-16   1.11468372323420E-06   1.95661269613677E-30   0.00000000000000E+00   1.11468372323442E-10
      0.00000000000000E+00   0.00000000000000E+00  -1.11468372033782E-06  -2.89638092264992E-15  -1.11468372323421E-06
      6.94413035143293E-28
      3.00000000000000E-02
      3.00000000000000E-01   2.99999999887681E-01   0.00000000000000E+00   0.00000000000000E+00   1.12320660194207E-06
     -1.07064681765495E-16   1.12320660183500E-06  -7.65105119200315E-31   0.00000000000000E+00   1.12320660183500E-10
      0.00000000000000E+00   0.00000000000000E+00  -1.12320659800701E-06  -3.82800433465405E-15  -1.12320660183501E-06
     -3.00755866856560E-27
      4.00000000000000E-02
      4.00000000000000E-01   3.99999999886912E-01   0.00000000000000E+00   0.00000000000000E+00   1.13089100494594E-06
     -5.89412892814239E-17   1.13089100488700E-06  -5.59161804506475E-30   0.00000000000000E+00   1.13089100488706E-10
      0.00000000000000E+00   0.00000000000000E+00  -1.13089100072765E-06  -4.15935030622020E-15  -1.13089100488700E-06
      6.40573827798838E-27
      5.00000000000000E-02
      5.00000000000000E-01   4.99999999886198E-01   0.00000000000000E+00   0.00000000000000E+00   1.13802240301755E-06
     -3.18875801009122E-17   1.13802240298567E-06  -4.26402457736144E-30   0.00000000000000E+00   1.13802240298582E-10
      0.00000000000000E+00   0.00000000000000E+00  -1.13802239978546E-06  -3.20021038627736E-15  -1.13802240298567E-06
      2.17805165759260E-27
      6.00000000000000E-02
      6.00000000000000E-01   5.99999999885517E-01   0.00000000000000E+00   0.00000000000000E+00   1.14481360904862E-06
     -1.51692020080651E-17   1.14481360903345E-06   1.98231780883718E-29   0.00000000000000E+00   1.14481360903334E-10
      0.00000000000000E+00   0.00000000000000E+00  -1.14481360739953E-06  -1.63392626214198E-15  -1.14481360903346E-06
      6.63503997979962E-27
      7.00000000000000E-02
      7.00000000000000E-01   6.99999999884858E-01   0.00000000000000E+00   0.00000000000000E+00   1.15140442873873E-06
     -6.14235455518856E-18   1.15140442873259E-06  -1.28177788447847E-29   0.00000000000000E+00   1.15140442873259E-10
      0.00000000000000E+00   0.00000000000000E+00  -1.15140442846104E-06  -2.71580050410711E-16  -1.15140442873262E-06
      3.80416313528208E-27
      8.00000000000000E-02
      8.00000000000000E-01   7.99999999884207E-01   0.00000000000000E+00   0.00000000000000E+00   1.15789868059452E-06
     -3.12763107918353E-18   1.15789868059139E-06   4.08106465755267E-30   0.00000000000000E+00   1.15789868059142E-10
      0.00000000000000E+00   0.00000000000000E+00  -1.15789868038564E-06  -2.05751830789496E-16  -1.15789868059139E-06
      2.56678554076448E-27
      9.00000000000000E-02
      9.00000000000000E-01   8.99999999883563E-01   0.00000000000000E+00   0.00000000000000E+00   1.16439240146443E-06
     -2.54435570873148E-18   1.16439240146189E-06   1.10078364975856E-30   0.00000000000000E+00   1.16439240146192E-10
      0.00000000000000E+00   0.00000000000000E+00  -1.16439240136488E-06  -9.70026104425956E-17  -1.16439240146188E-06
      1.16257753103797E-26
      1.00000000000000E-01
      1.00000000000000E+00   9.99999999882904E-01   0.00000000000000E+00   0.00000000000000E+00   1.17099872357653E-06
     -2.11388144730429E-18   1.17099872357442E-06   1.82370214282115E-29   0.00000000000000E+00   1.17099872357441E-10
      0.00000000000000E+00   0.00000000000000E+00  -1.17099872327630E-06  -2.98127669832818E-16  -1.17099872357443E-06
     -3.04343695763356E-27
      1.10000000000000E-01
      1.10000000000000E+00   1.09999999988221E+00   0.00000000000000E+00   0.00000000000000E+00   1.17781335152464E-06
     -1.85031874129563E-18   1.17781335152279E-06   9.88890806239142E-30   0.00000000000000E+00   1.17781335152277E-10
      0.00000000000000E+00   0.00000000000000E+00  -1.17781335138183E-06  -1.40970401599909E-16  -1.17781335152280E-06
     -1.16869353338212E-26
      1.20000000000000E-01
      1.20000000000000E+00   1.19999999988150E+00   0.00000000000000E+00   0.00000000000000E+00   1.18491799814880E-06
     -1.52035688897795E-18   1.18491799814728E-06   4.44244830081131E-30   0.00000000000000E+00   1.18491799814729E-10
      0.00000000000000E+00   0.00000000000000E+00  -1.18491799842907E-06   2.81792918733422E-16  -1.18491799814728E-06
      9.29187204241908E-27
      1.30000000000000E-01
      1.30000000000000E+00   1.29999999988075E+00   0.00000000000000E+00   0.00000000000000E+00   1.19239916004215E-06
     -1.01993619173184E-18   1.19239916004113E-06  -2.25388476418970E-29   0.00000000000000E+00   1.19239916004113E-10
      0.00000000000000E+00   0.00000000000000E+00  -1.19239915960347E-06  -4.37656749069406E-16  -1.19239916004113E-06
      2.80228066267107E-27
      1.40000000000000E-01
      1.40000000000000E+00   1.39999999987998E+00   0.00000000000000E+00   0.00000000000000E+00   1.20031280458994E-06
     -4.80709100427979E-19   1.20031280458946E-06  -3.20557876028590E-31   0.00000000000000E+00   1.20031280458945E-10
      0.00000000000000E+00   0.00000000000000E+00  -1.20031280439126E-06  -1.98193748454526E-16  -1.20031280458945E-06
      9.58857557386169E-27
      1.50000000000000E-01
      1.50000000000000E+00   1.49999999987913E+00   0.00000000000000E+00   0.00000000000000E+00   1.20872515693126E-06
     -1.31506233525043E-19   1.20872515693113E-06  -6.01197224098903E-30   0.00000000000000E+00   1.20872515693113E-10
      0.00000000000000E+00   0.00000000000000E+00  -1.20872515685231E-06  -7.88265318210632E-17  -1.20872515693114E-06
      1.01680474415324E-26
      1.60000000000000E-01
      1.60000000000000E+00   1.59999999987823E+00   0.00000000000000E+00   0.00000000000000E+00   1.21766782211203E-06
     -3.07457747218444E-19   1.21766782211172E-06   5.70048675767823E-30   0.00000000000000E+00   1.21766782211173E-10
      0.00000000000000E+00   0.00000000000000E+00  -1.21766782193302E-06  -1.78713803655573E-16  -1.21766782211174E-06
      2.04296252037234E-26
      1.70000000000000E-01
      1.70000000000000E+00   1.69999999987727E+00   0.00000000000000E+00   0.00000000000000E+00   1.22718119346804E-06
     -1.54073935744009E-18   1.22718119346650E-06   2.69359339791194E-29   0.00000000000000E+00   1.22718119346650E-10
      0.00000000000000E+00   0.00000000000000E+00  -1.22718119295610E-06  -5.10414006790716E-16  -1.22718119346651E-06
     -4.66069378003048E-27
      1.80000000000000E-01
      1.80000000000000E+00   1.79999999987628E+00   0.00000000000000E+00   0.00000000000000E+00   1.23728449566123E-06
     -1.08530728023839E-17   1.23728449565038E-06  -1.39850933744737E-29   0.00000000000000E+00   1.23728449565038E-10
      0.00000000000000E+00   0.00000000000000E+00  -1.23728449590355E-06   2.53163187126399E-16  -1.23728449565039E-06
     -5.84276606854043E-27
      1.90000000000000E-01
      1.90000000000000E+00   1.89999999987519E+00   0.00000000000000E+00   0.00000000000000E+00   1.24800059348904E-06
     -1.38684999375513E-16   1.24800059335035E-06  -1.67491490224938E-29   0.00000000000000E+00   1.24800059335036E-10
      0.00000000000000E+00   0.00000000000000E+00  -1.24800058927627E-06  -4.07409397213624E-15  -1.24800059335036E-06
     -1.30598907651135E-27
      2.00000000000000E-01
      2.00000000000000E+00   1.99999999987406E+00   0.00000000000000E+00   0.00000000000000E+00   1.25929415649100E-06
     -1.06909384228188E-19   1.25929415649089E-06  -2.17737425226967E-31   0.00000000000000E+00   1.25929415649089E-10
      0.00000000000000E+00   0.00000000000000E+00  -1.25929415653573E-06   4.48433215863681E-17  -1.25929415649088E-06
     -8.98437841190410E-27
      2.10000000000000E-01
      2.10000000000000E+00   2.09999999987291E+00   0.00000000000000E+00   0.00000000000000E+00   1.27098858088442E-06
     -3.75764400059827E-17   1.27098858084684E-06   5.54928021238173E-30   0.00000000000000E+00   1.27098858084684E-10
      0.00000000000000E+00   0.00000000000000E+00  -1.27098858064185E-06  -2.05014346748674E-16  -1.27098858084686E-06
      9.46906192045933E-27
      2.20000000000000E-01
      2.20000000000000E+00   2.19999999987171E+00   0.00000000000000E+00   0.00000000000000E+00   1.28293471313618E-06
     -1.60873103071166E-19   1.28293471313602E-06  -5.31793419807808E-30   0.00000000000000E+00   1.28293471313602E-10
      0.00000000000000E+00   0.00000000000000E+00  -1.28293471259644E-06  -5.39592588156518E-16  -1.28293471313603E-06
      7.62240662406218E-27
      2.30000000000000E-01
      2.30000000000000E+00   2.29999999987046E+00   0.00000000000000E+00   0.00000000000000E+00   1.29547259542692E-06
     -8.77871121687794E-21   1.29547259542691E-06   1.23853281252367E-29   0.00000000000000E+00   1.29547259542690E-10
      0.00000000000000E+00   0.00000000000000E+00  -1.29547259566487E-06   2.37970156753922E-16  -1.29547259542690E-06
     -1.14326664072506E-27
      2.40000000000000E-01
      2.40000000000000E+00   2.39999999986910E+00   0.00000000000000E+00   0.00000000000000E+00   1.30880481986339E-06
     -3.98707901783842E-19   1.30880481986299E-06   1.58661027979623E-29   0.00000000000000E+00   1.30880481986298E-10
      0.00000000000000E+00   0.00000000000000E+00  -1.30880481999647E-06   1.33491326585800E-16  -1.30880481986298E-06
      3.31328620663151E-27
      2.50000000000000E-01
      2.50000000000000E+00   2.49999999986766E+00   0.00000000000000E+00   0.00000000000000E+00   1.32329213595712E-06
     -1.89448265770748E-19   1.32329213595694E-06  -6.25843890982234E-30   0.00000000000000E+00   1.32329213595692E-10
      0.00000000000000E+00   0.00000000000000E+00  -1.32329213530144E-06  -6.55491595777127E-16  -1.32329213595694E-06
     -1.05943773201268E-26
      2.60000000000000E-01
      2.60000000000000E+00   2.59999999986607E+00   0.00000000000000E+00   0.00000000000000E+00   1.33917055246613E-06
     -5.39935428611221E-19   1.33917055246559E-06  -3.31444747289939E-30   0.00000000000000E+00   1.33917055246560E-10
      0.00000000000000E+00   0.00000000000000E+00  -1.33917055184739E-06  -6.18194085339630E-16  -1.33917055246559E-06
     -5.77260623152286E-27
      2.70000000000000E-01
      2.70000000000000E+00   2.69999999986435E+00   0.00000000000000E+00   0.00000000000000E+00   1.35664266502727E-06
      1.43909805928958E-16   1.35664266517118E-06  -2.02601650042787E-29   0.00000000000000E+00   1.35664266517117E-10
      0.00000000000000E+00   0.00000000000000E+00  -1.35664121336408E-06  -1.45180707768628E-12  -1.35664266517116E-06
     -6.81339112410776E-27
      2.80000000000000E-01
      2.80000000000000E+00   2.79999999986240E+00   0.00000000000000E+00   0.00000000000000E+00   1.37593712159878E-06
      1.60704834988711E-16   1.37593712175948E-06  -1.14176062353391E-29   0.00000000000000E+00   1.37593712175949E-10
      0.00000000000000E+00   0.00000000000000E+00  -1.37593602583917E-06  -1.09592030600468E-12  -1.37593712175948E-06
     -3.78437322263368E-27
      2.90000000000000E-01
      2.90000000000000E+00   2.89999999986025E+00   0.00000000000000E+00   0.00000000000000E+00   1.39728444884125E-06
      1.97466398234337E-16   1.39728444903871E-06  -1.37144336583930E-29   0.00000000000000E+00   1.39728444903871E-10
      0.00000000000000E+00   0.00000000000000E+00  -1.39728427937485E-06  -1.69663866827906E-13  -1.39728444903872E-06
      2.54254410742254E-27
      3.00000000000000E-01
      3.00000000000000E+00   2.99999999985790E+00   0.00000000000000E+00   0.00000000000000E+00   1.42095451609438E-06
      2.35671294568056E-16   1.42095451633005E-06   2.74545724294864E-29   0.00000000000000E+00   1.42095451633006E-10
      0.00000000000000E+00   0.00000000000000E+00  -1.42095462056344E-06   1.04233389813152E-13  -1.42095451633005E-06
     -1.35539127899062E-27
      3.10000000000000E-01
      3.10000000000000E+00   3.09999999985526E+00   0.00000000000000E+00   0.00000000000000E+00   1.44728587449125E-06
      2.71338824328160E-16   1.44728587476259E-06  -7.51496530123629E-30   0.00000000000000E+00   1.44728587476259E-10
      0.00000000000000E+00   0.00000000000000E+00  -1.44728593952462E-06   6.47620137882027E-14  -1.44728587476260E-06
     -8.33208547201861E-27
      3.20000000000000E-01
      3.20000000000000E+00   3.19999999985233E+00   0.00000000000000E+00   0.00000000000000E+00   1.47666756347482E-06
      3.05848184585017E-16   1.47666756378067E-06  -4.98830392933170E-30   0.00000000000000E+00   1.47666756378067E-10
      0.00000000000000E+00   0.00000000000000E+00  -1.47666755874669E-06  -5.03398249356609E-15  -1.47666756378068E-06
     -4.46632683844454E-27
      3.30000000000000E-01
      3.30000000000000E+00   3.29999999984904E+00   0.00000000000000E+00   0.00000000000000E+00   1.50953833456606E-06
      3.36591427168064E-16   1.50953833490265E-06  -9.31432319026470E-30   0.00000000000000E+00   1.50953833490265E-10
      0.00000000000000E+00   0.00000000000000E+00  -1.50953828957865E-06  -4.53239816626718E-14  -1.50953833490263E-06
      1.65187223439856E-26
      3.40000000000000E-01
      3.40000000000000E+00   3.39999999984537E+00   0.00000000000000E+00   0.00000000000000E+00   1.54641322663532E-06
      3.63836822630810E-16   1.54641322699916E-06   2.24345151256424E-29   0.00000000000000E+00   1.54641322699916E-10
      0.00000000000000E+00   0.00000000000000E+00  -1.54641316747100E-06  -5.95281572444610E-14  -1.54641322699916E-06
      2.27898505070892E-28
      3.50000000000000E-01
      3.50000000000000E+00   3.49999999984121E+00   0.00000000000000E+00   0.00000000000000E+00   1.58789862564936E-06
      3.91379017230831E-16   1.58789862604073E-06   8.18027410054092E-31   0.00000000000000E+00   1.58789862604075E-10
      0.00000000000000E+00   0.00000000000000E+00  -1.58789856912324E-06  -5.69174902840017E-14  -1.58789862604073E-06
     -9.99840579423334E-27
      3.60000000000000E-01
      3.60000000000000E+00   3.59999999983653E+00   0.00000000000000E+00   0.00000000000000E+00   1.63469189614955E-06
      4.19934152204403E-16   1.63469189656948E-06  -1.69064038296022E-29   0.00000000000000E+00   1.63469189656948E-10
      0.00000000000000E+00   0.00000000000000E+00  -1.63469185051467E-06  -4.60548215878483E-14  -1.63469189656950E-06
     -8.24518404630580E-27
      3.70000000000000E-01
      3.70000000000000E+00   3.69999999983124E+00   0.00000000000000E+00   0.00000000000000E+00   1.68759387392480E-06
      4.45261311778875E-16   1.68759387437006E-06   1.17820140095037E-29   0.00000000000000E+00   1.68759387437006E-10
      0.00000000000000E+00   0.00000000000000E+00  -1.68759384770666E-06  -2.66633990822834E-14  -1.68759387437006E-06
     -5.40975890890574E-27
      3.80000000000000E-01
      3.80000000000000E+00   3.79999999982524E+00   0.00000000000000E+00   0.00000000000000E+00   1.74755122831598E-06
      4.64639779714785E-16   1.74755122878062E-06   7.93834362806651E-31   0.00000000000000E+00   1.74755122878061E-10
      0.00000000000000E+00   0.00000000000000E+00  -1.74755122656058E-06  -2.22003691302654E-15  -1.74755122878062E-06
      8.49243698917464E-27
      3.90000000000000E-01
      3.90000000000000E+00   3.89999999981843E+00   0.00000000000000E+00   0.00000000000000E+00   1.81572042591056E-06
      4.80965436986359E-16   1.81572042639152E-06   1.48787240571761E-30   0.00000000000000E+00   1.81572042639151E-10
      0.00000000000000E+00   0.00000000000000E+00  -1.81572045279244E-06   2.64009517054458E-14  -1.81572042639148E-06
      9.12871413178234E-27
      4.00000000000000E-01
      4.00000000000000E+00   3.99999999981063E+00   0.00000000000000E+00   0.00000000000000E+00   1.89353352585506E-06
      4.97545816755031E-16   1.89353352635260E-06  -2.77690820437031E-29   0.00000000000000E+00   1.89353352635261E-10
      0.00000000000000E+00   0.00000000000000E+00  -1.89353358049957E-06   5.41469778095142E-14  -1.89353352635259E-06
     -1.19349140681075E-26
      4.10000000000000E-01
      4.10000000000000E+00   4.09999999980170E+00   0.00000000000000E+00   0.00000000000000E+00   1.98275717464557E-06
      5.13010637968246E-16   1.98275717515858E-06   2.31587944776127E-29   0.00000000000000E+00   1.98275717515858E-10
      0.00000000000000E+00   0.00000000000000E+00  -1.98275725157485E-06   7.64162714697254E-14  -1.98275717515857E-06
      5.51291806236883E-27
      4.20000000000000E-01
      4.20000000000000E+00   4.19999999979143E+00   0.00000000000000E+00   0.00000000000000E+00   2.08555300275260E-06
      5.24645931581232E-16   2.08555300327724E-06   1.83912521044139E-29   0.00000000000000E+00   2.08555300327724E-10
      0.00000000000000E+00   0.00000000000000E+00  -2.08555309025077E-06   8.69735091803568E-14  -2.08555300327726E-06
     -1.23641954984661E-26
      4.30000000000000E-01
      4.30000000000000E+00   4.29999999977957E+00   0.00000000000000E+00   0.00000000000000E+00   2.20455241875716E-06
      5.30807902482696E-16   2.20455241928797E-06   1.04332516254588E-30   0.00000000000000E+00   2.20455241928797E-10
      0.00000000000000E+00   0.00000000000000E+00  -2.20455249571780E-06   7.64298374205455E-14  -2.20455241928796E-06
      1.00238568799376E-26
      4.40000000000000E-01
      4.40000000000000E+00   4.39999999976574E+00   0.00000000000000E+00   0.00000000000000E+00   2.34295419396274E-06
      5.32366057568106E-16   2.34295419449510E-06  -1.19438050129709E-29   0.00000000000000E+00   2.34295419449511E-10
      0.00000000000000E+00   0.00000000000000E+00  -2.34295421021099E-06   1.57158755062147E-14  -2.34295419449511E-06
     -1.47958870634008E-26
      4.50000000000000E-01
      4.50000000000000E+00   4.49999999974953E+00   0.00000000000000E+00   0.00000000000000E+00   2.50466132324753E-06
      5.33133799351194E-16   2.50466132378067E-06   4.20051782833691E-30   0.00000000000000E+00   2.50466132378067E-10
      0.00000000000000E+00   0.00000000000000E+00  -2.50466127668800E-06  -4.70926659462385E-14  -2.50466132378067E-06
      2.79139379140972E-27
      4.60000000000000E-01
      4.60000000000000E+00   4.59999999973058E+00   0.00000000000000E+00   0.00000000000000E+00   2.69447838446342E-06
      5.38536618704874E-16   2.69447838500196E-06   1.21086201473441E-29   0.00000000000000E+00   2.69447838500195E-10
      0.00000000000000E+00   0.00000000000000E+00  -2.69447830233923E-06  -8.26627411847312E-14  -2.69447838500197E-06
      1.34024643141372E-26
      4.70000000000000E-01
      4.70000000000000E+00   4.69999999970815E+00   0.00000000000000E+00   0.00000000000000E+00   2.91838899734814E-06
      5.52684187427915E-16   2.91838899790083E-06   2.14667932357448E-29   0.00000000000000E+00   2.91838899790083E-10
      0.00000000000000E+00   0.00000000000000E+00  -2.91838897195793E-06  -2.59428768625913E-14  -2.91838899790081E-06
     -3.47208936876371E-27
      4.80000000000000E-01
      4.80000000000000E+00   4.79999999968158E+00   0.00000000000000E+00   0.00000000000000E+00   3.18393104704406E-06
      5.76322644804433E-16   3.18393104762039E-06  -2.85326750974505E-30   0.00000000000000E+00   3.18393104762038E-10
      0.00000000000000E+00   0.00000000000000E+00  -3.18393108525462E-06   3.76342443477978E-14  -3.18393104762037E-06
     -5.62788342288866E-27
      4.90000000000000E-01
      4.90000000000000E+00   4.89999999964997E+00   0.00000000000000E+00   0.00000000000000E+00   3.50070051296205E-06
      6.06779940534001E-16   3.50070051356883E-06  -2.99252873796313E-29   0.00000000000000E+00   3.50070051356882E-10
      0.00000000000000E+00   0.00000000000000E+00  -3.50070056933885E-06   5.57699896565594E-14  -3.50070051356886E-06
      5.53730465399425E-28
      5.00000000000000E-01
      5.00000000000000E+00   4.99999999961192E+00   0.00000000000000E+00   0.00000000000000E+00   3.88103850798739E-06
      6.40445769346088E-16   3.88103850862784E-06   7.93531949716058E-30   0.00000000000000E+00   3.88103850862784E-10
      0.00000000000000E+00   0.00000000000000E+00  -3.88103856032201E-06   5.16941716467717E-14  -3.88103850862784E-06
      7.57532695411866E-28
      5.10000000000000E-01
      5.10000000000000E+00   5.09999999956593E+00   0.00000000000000E+00   0.00000000000000E+00   4.34099231914551E-06
      6.75888601456694E-16   4.34099231982140E-06   6.20551661896856E-30   0.00000000000000E+00   4.34099231982140E-10
      0.00000000000000E+00   0.00000000000000E+00  -4.34099236531432E-06   4.54929093468290E-14  -4.34099231982141E-06
      5.15728026783145E-27
      5.20000000000000E-01
      5.20000000000000E+00   5.19999999950981E+00   0.00000000000000E+00   0.00000000000000E+00   4.90169620870540E-06
      7.13601875988588E-16   4.90169620941901E-06  -2.69903683354261E-30   0.00000000000000E+00   4.90169620941900E-10
      0.00000000000000E+00   0.00000000000000E+00  -4.90169625370752E-06   4.42885608868931E-14  -4.90169620941896E-06
      1.88823830600606E-26
      5.30000000000000E-01
      5.30000000000000E+00   5.29999999944086E+00   0.00000000000000E+00   0.00000000000000E+00   5.59141139559616E-06
      7.54011320337402E-16   5.59141139635017E-06  -1.23807919288778E-29   0.00000000000000E+00   5.59141139635016E-10
      0.00000000000000E+00   0.00000000000000E+00  -5.59141144487939E-06   4.85292173104768E-14  -5.59141139635017E-06
      6.52844541362740E-27
      5.40000000000000E-01
      5.40000000000000E+00   5.39999999935517E+00   0.00000000000000E+00   0.00000000000000E+00   6.44863599418744E-06
      7.96197517943625E-16   6.44863599498364E-06  -1.70772672257873E-29   0.00000000000000E+00   6.44863599498366E-10
      0.00000000000000E+00   0.00000000000000E+00  -6.44863605146621E-06   5.64826125544945E-14  -6.44863599498359E-06
     -1.21778122624718E-26
      5.50000000000000E-01
      5.50000000000000E+00   5.49999999924730E+00   0.00000000000000E+00   0.00000000000000E+00   7.52702189560555E-06
      8.39466871504442E-16   7.52702189644502E-06   2.66365450194323E-29   0.00000000000000E+00   7.52702189644504E-10
      0.00000000000000E+00   0.00000000000000E+00  -7.52702196355574E-06   6.71107481216865E-14  -7.52702189644500E-06
     -1.40575152614090E-26
      5.60000000000000E-01
      5.60000000000000E+00   5.59999999910967E+00   0.00000000000000E+00   0.00000000000000E+00   8.90346923424502E-06
      8.87932844073732E-16   8.90346923513295E-06  -1.44553457303459E-30   0.00000000000000E+00   8.90346923513295E-10
      0.00000000000000E+00   0.00000000000000E+00  -8.90346931420538E-06   7.90724602774813E-14  -8.90346923513292E-06
     -7.23468884887469E-27
      5.70000000000000E-01
      5.70000000000000E+00   5.69999999893077E+00   0.00000000000000E+00   0.00000000000000E+00   1.06920655958574E-05
      9.58592746013056E-16   1.06920655968160E-05   3.99185279582773E-31   0.00000000000000E+00   1.06920655968161E-09
      0.00000000000000E+00   0.00000000000000E+00  -1.06920656873811E-05   9.05649727357567E-14  -1.06920655968161E-05
      6.64476558479310E-27
      5.80000000000000E-01
      5.80000000000000E+00   5.79999999869307E+00   0.00000000000000E+00   0.00000000000000E+00   1.30694419447970E-05
      1.09377110706850E-15   1.30694419458908E-05  -7.95346428259616E-30   0.00000000000000E+00   1.30694419458908E-09
      0.00000000000000E+00   0.00000000000000E+00  -1.30694420409534E-05   9.50627267638833E-14  -1.30694419458906E-05
      1.22806810993679E-26
      5.90000000000000E-01
      5.90000000000000E+00   5.89999999836757E+00   0.00000000000000E+00   0.00000000000000E+00   1.63241745288083E-05
      4.70044887511686E-20   1.63241745288083E-05  -2.88108951407960E-29   0.00000000000000E+00   1.63241745288083E-09
      0.00000000000000E+00   0.00000000000000E+00  -1.63241745283625E-05  -4.45812649055183E-16  -1.63241745288083E-05
      6.18606540898162E-27
      6.00000000000000E-01
      6.00000000000000E+00   5.99999999790381E+00   0.00000000000000E+00   0.00000000000000E+00   2.09618900120786E-05
      3.08730027141428E-19   2.09618900120789E-05   4.75786515429982E-29   0.00000000000000E+00   2.09618900120789E-09
      0.00000000000000E+00   0.00000000000000E+00  -2.09618900124799E-05   4.00830892045235E-16  -2.09618900120790E-05
     -2.15700370648733E-26
      6.10000000000000E-01
      6.10000000000000E+00   6.09999999720439E+00   0.00000000000000E+00   0.00000000000000E+00   2.79559770178613E-05
      2.87058645351889E-18   2.79559770178641E-05   2.44274173926504E-29   0.00000000000000E+00   2.79559770178640E-09
      0.00000000000000E+00   0.00000000000000E+00  -2.79559770186039E-05   7.40204010043554E-16  -2.79559770178637E-05
      2.04982850718116E-26
      6.20000000000000E-01
      6.20000000000000E+00   6.19999999605504E+00   0.00000000000000E+00   0.00000000000000E+00   3.94492624768139E-05
      3.52150859712140E-17   3.94492624768491E-05  -2.11144819852039E-29   0.00000000000000E+00   3.94492624768492E-09
      0.00000000000000E+00   0.00000000000000E+00  -3.94492624833060E-05   6.45679532785293E-15  -3.94492624768492E-05
      1.07806153978376E-26
      6.30000000000000E-01
      6.30000000000000E+00   6.29999999386654E+00   0.00000000000000E+00   0.00000000000000E+00   6.13347324112914E-05
     -2.21003940125213E-19   6.13347324112912E-05   1.53414160857834E-29   0.00000000000000E+00   6.13347324112910E-09
      0.00000000000000E+00   0.00000000000000E+00  -6.13347324108127E-05  -4.78674042280998E-16  -6.13347324112914E-05
     -6.90914720511313E-27
      6.35000000000000E-01
      6.35000000000000E+00   6.34999999177002E+00   0.00000000000000E+00   0.00000000000000E+00   8.22998192861069E-05
      6.61435405673505E-16   8.22998192867683E-05   6.71931645988609E-29   0.00000000000000E+00   8.22998192867682E-09
      0.00000000000000E+00   0.00000000000000E+00  -8.22998197021673E-05   4.15399494225419E-13  -8.22998192867678E-05
      6.53734845501446E-27
      6.37333333333334E-01
      6.37333333333334E+00   6.37333332343842E+00   0.00000000000000E+00   0.00000000000000E+00   9.89490912102759E-05
     -1.99543685921904E-16   9.89490912100763E-05   2.73215106696255E-29   0.00000000000000E+00   9.89490912100757E-09
      0.00000000000000E+00   0.00000000000000E+00  -9.89490915423725E-05   3.32295954423317E-13  -9.89490912100765E-05
     -1.57361256516254E-26
      6.39511111111111E-01
      6.39511111111111E+00   6.39511109818492E+00   0.00000000000000E+00   0.00000000000000E+00   1.29261905550983E-04
      4.65160196680386E-17   1.29261905551029E-04   1.03984741200406E-29   0.00000000000000E+00   1.29261905551029E-08
      0.00000000000000E+00   0.00000000000000E+00  -1.29261905585405E-04   3.43775059341065E-14  -1.29261905551028E-04
     -8.58088676991129E-27
      6.41398518518519E-01
      6.41398518518519E+00   6.41398516694462E+00   0.00000000000000E+00   0.00000000000000E+00   1.82405475615576E-04
      2.90099458066198E-15   1.82405475618477E-04  -2.47827527740972E-30   0.00000000000000E+00   1.82405475618477E-08
      0.00000000000000E+00   0.00000000000000E+00  -1.82405478702498E-04   3.08402154364211E-12  -1.82405475618477E-04
     -2.26640466614025E-27
      6.43097185185185E-01
      6.43097185185185E+00   6.43097182357944E+00   0.00000000000000E+00   0.00000000000000E+00   2.82724002571479E-04
      7.00519568404220E-16   2.82724002572180E-04  -2.76677736583545E-29   0.00000000000000E+00   2.82724002572180E-08
      0.00000000000000E+00   0.00000000000000E+00  -2.82724003791523E-04   1.21934362300486E-12  -2.82724002572180E-04
     -1.09807402846684E-27
      6.45928296296297E-01
      6.45928296296297E+00   6.45928291085090E+00   0.00000000000000E+00   0.00000000000000E+00   5.21120093077534E-04
      1.41859488726102E-15   5.21120093078952E-04   4.53785963089341E-29   0.00000000000000E+00   5.21120093078952E-08
      0.00000000000000E+00   0.00000000000000E+00  -5.21120096820457E-04   3.74150941855841E-12  -5.21120093078948E-04
      3.26644846716046E-27
      6.50835555555556E-01
      6.50835555555556E+00   6.50835546008162E+00   0.00000000000000E+00   0.00000000000000E+00   9.54739595228801E-04
      2.35428995266390E-15   9.54739595231155E-04  -3.54246694320652E-29   0.00000000000000E+00   9.54739595231157E-08
      0.00000000000000E+00   0.00000000000000E+00  -9.54739606135688E-04   1.09045165035039E-11  -9.54739595231172E-04
     -2.67188013800736E-27
      6.59668622222223E-01
      6.59668622222223E+00   6.59668604797243E+00   0.00000000000000E+00   0.00000000000000E+00   1.74249820501025E-03
      3.02307744405937E-16   1.74249820501055E-03  -2.30741188122466E-30   0.00000000000000E+00   1.74249820501055E-07
      0.00000000000000E+00   0.00000000000000E+00  -1.74249820767658E-03   2.66602678128677E-12  -1.74249820501055E-03
      5.80633133938579E-28
      6.69668622222223E-01