DF-ISE text

Info {
  version   = 1.0
  type      = xyplot
  datasets  = [
    "time"
    "ntype OuterVoltage" "ntype InnerVoltage" "ntype QuasiFermiPotential" "ntype DisplacementCurrent" "ntype eCurrent"
    "ntype hCurrent" "ntype TotalCurrent" "ntype Charge" "ptype OuterVoltage" "ptype InnerVoltage"
    "ptype QuasiFermiPotential" "ptype DisplacementCurrent" "ptype eCurrent" "ptype hCurrent" "ptype TotalCurrent"
    "ptype Charge" ]
  functions = [
    Time
    OuterVoltage InnerVoltage QuasiFermiPotential DisplacementCurrent eCurrent
    hCurrent TotalCurrent Charge OuterVoltage InnerVoltage
    QuasiFermiPotential DisplacementCurrent eCurrent hCurrent TotalCurrent
    Charge ]
}

Data {
      1.00000000000000E-02
      1.00000000000000E-01   9.99999999927439E-02   0.00000000000000E+00   0.00000000000000E+00   7.25598152276533E-08
     -6.48149171470909E-17   7.25598151628384E-08  -3.42029205460694E-30   0.00000000000000E+00   7.25598151623969E-12
      0.00000000000000E+00   0.00000000000000E+00  -7.25598150368839E-08  -1.25955174840161E-16  -7.25598151628391E-08
      2.22672806865445E-28
      2.00000000000000E-02
      2.00000000000000E-01   1.99999999992570E-01   0.00000000000000E+00   0.00000000000000E+00   7.42991747860762E-08
     -1.02079481949312E-15   7.42991737652814E-08   2.72171781533709E-32   0.00000000000000E+00   7.42991737653346E-12
      0.00000000000000E+00   0.00000000000000E+00  -7.42991641696162E-08  -9.59566519512956E-15  -7.42991737652814E-08
      2.16017299567674E-27
      3.00000000000000E-02
      3.00000000000000E-01   2.99999999992416E-01   0.00000000000000E+00   0.00000000000000E+00   7.58464675584424E-08
     -4.63593031533287E-16   7.58464670948493E-08  -1.94451617251305E-30   0.00000000000000E+00   7.58464670949808E-12
      0.00000000000000E+00   0.00000000000000E+00  -7.58464618469766E-08  -5.24787311551118E-15  -7.58464670948497E-08
      1.08592911874863E-27
      4.00000000000000E-02
      4.00000000000000E-01   3.99999999992271E-01   0.00000000000000E+00   0.00000000000000E+00   7.72850546620422E-08
     -2.27917609092951E-16   7.72850544341246E-08  -6.26599923708716E-30   0.00000000000000E+00   7.72850544342239E-12
      0.00000000000000E+00   0.00000000000000E+00  -7.72850514855250E-08  -2.94859974671509E-15  -7.72850544341247E-08
     -2.72902411560582E-27
      5.00000000000000E-02
      5.00000000000000E-01   4.99999999992130E-01   0.00000000000000E+00   0.00000000000000E+00   7.86811220292289E-08
     -1.46572592548783E-16   7.86811218826563E-08   1.33001277242806E-29   0.00000000000000E+00   7.86811218825756E-12
      0.00000000000000E+00   0.00000000000000E+00  -7.86811207935588E-08  -1.08909788336022E-15  -7.86811218826567E-08
     -2.62354242960697E-27
      6.00000000000000E-02
      6.00000000000000E-01   5.99999999991997E-01   0.00000000000000E+00   0.00000000000000E+00   8.00545691571906E-08
     -6.37697380849539E-17   8.00545690934209E-08   9.54718127002132E-30   0.00000000000000E+00   8.00545690933552E-12
      0.00000000000000E+00   0.00000000000000E+00  -8.00545676303316E-08  -1.46308981699397E-15  -8.00545690934215E-08
      4.90044687825262E-27
      7.00000000000000E-02
      7.00000000000000E-01   6.99999999991862E-01   0.00000000000000E+00   0.00000000000000E+00   8.13980626837438E-08
     -8.97420519185877E-18   8.13980626747696E-08  -3.25698898568672E-30   0.00000000000000E+00   8.13980626747354E-12
      0.00000000000000E+00   0.00000000000000E+00  -8.13980620350476E-08  -6.39721924680010E-16  -8.13980626747696E-08
      6.53488076419522E-27
      8.00000000000000E-02
      8.00000000000000E-01   7.99999999991725E-01   0.00000000000000E+00   0.00000000000000E+00   8.27031217216363E-08
      6.28307418600752E-19   8.27031217222646E-08   1.30037628954994E-30   0.00000000000000E+00   8.27031217222739E-12
      0.00000000000000E+00   0.00000000000000E+00  -8.27031214047985E-08  -3.17466779777160E-16  -8.27031217222653E-08
      8.77191507097708E-28
      9.00000000000000E-02
      9.00000000000000E-01   8.99999999991598E-01   0.00000000000000E+00   0.00000000000000E+00   8.39824994273419E-08
     -2.09178161696436E-18   8.39824994252501E-08  -4.26704870826737E-30   0.00000000000000E+00   8.39824994252674E-12
      0.00000000000000E+00   0.00000000000000E+00  -8.39824992189846E-08  -2.06265479211729E-16  -8.39824994252501E-08
     -6.87711561055752E-28
      1.00000000000000E-01
      1.00000000000000E+00   9.99999999991472E-01   0.00000000000000E+00   0.00000000000000E+00   8.52745693480758E-08
     -5.12093900136157E-18   8.52745693429548E-08   3.99185279582773E-30   0.00000000000000E+00   8.52745693429818E-12
      0.00000000000000E+00   0.00000000000000E+00  -8.52745688807743E-08  -4.62180649648199E-16  -8.52745693429550E-08
     -4.17668767679818E-28
      1.10000000000000E-01
      1.10000000000000E+00   1.09999999999134E+00   0.00000000000000E+00   0.00000000000000E+00   8.65993261285952E-08
     -6.65719855399378E-18   8.65993261219380E-08  -2.50398039011012E-30   0.00000000000000E+00   8.65993261219238E-12
      0.00000000000000E+00   0.00000000000000E+00  -8.65993248217317E-08  -1.30020615477560E-15  -8.65993261219379E-08
     -2.14911677308466E-27
      1.20000000000000E-01
      1.20000000000000E+00   1.19999999999120E+00   0.00000000000000E+00   0.00000000000000E+00   8.79838124021258E-08
     -6.38072674146222E-18   8.79838123957451E-08   1.52718610749470E-30   0.00000000000000E+00   8.79838123957443E-12
      0.00000000000000E+00   0.00000000000000E+00  -8.79838114255170E-08  -9.70228185919331E-16  -8.79838123957452E-08
      2.89890769337734E-27
      1.30000000000000E-01
      1.30000000000000E+00   1.29999999999106E+00   0.00000000000000E+00   0.00000000000000E+00   8.94499842750465E-08
     -3.96547198754480E-18   8.94499842710810E-08  -1.12406945773422E-29   0.00000000000000E+00   8.94499842710889E-12
      0.00000000000000E+00   0.00000000000000E+00  -8.94499831763288E-08  -1.09475219961990E-15  -8.94499842710810E-08
      3.97617570121139E-27
      1.40000000000000E-01
      1.40000000000000E+00   1.39999999999091E+00   0.00000000000000E+00   0.00000000000000E+00   9.10050294255659E-08
      3.50656273056532E-19   9.10050294259165E-08   1.85137294061041E-29   0.00000000000000E+00   9.10050294259161E-12
      0.00000000000000E+00   0.00000000000000E+00  -9.10050275266235E-08  -1.89929410867707E-15  -9.10050294259176E-08
     -1.29645701589586E-27
      1.50000000000000E-01
      1.50000000000000E+00   1.49999999999073E+00   0.00000000000000E+00   0.00000000000000E+00   9.26656073818492E-08
      5.05529938699495E-18   9.26656073869044E-08   2.09511789162837E-29   0.00000000000000E+00   9.26656073869048E-12
      0.00000000000000E+00   0.00000000000000E+00  -9.26656060729469E-08  -1.31395839120250E-15  -9.26656073869053E-08
      4.35620008737419E-28
      1.60000000000000E-01
      1.60000000000000E+00   1.59999999999056E+00   0.00000000000000E+00   0.00000000000000E+00   9.44194727295868E-08
      7.35026296681349E-18   9.44194727369371E-08  -1.00885007021828E-29   0.00000000000000E+00   9.44194727369348E-12
      0.00000000000000E+00   0.00000000000000E+00  -9.44194714324403E-08  -1.30449691599750E-15  -9.44194727369372E-08
      2.55754379671595E-27
      1.70000000000000E-01
      1.70000000000000E+00   1.69999999999037E+00   0.00000000000000E+00   0.00000000000000E+00   9.62771011255538E-08
      7.01514826942332E-18   9.62771011325689E-08   1.98382987429014E-29   0.00000000000000E+00   9.62771011325708E-12
      0.00000000000000E+00   0.00000000000000E+00  -9.62770994768804E-08  -1.65568915821901E-15  -9.62771011325696E-08
      7.03098339105124E-27
      1.80000000000000E-01
      1.80000000000000E+00   1.79999999999018E+00   0.00000000000000E+00   0.00000000000000E+00   9.82296618019712E-08
      4.98757309550548E-18   9.82296618069588E-08   1.94602823796602E-29   0.00000000000000E+00   9.82296618069572E-12
      0.00000000000000E+00   0.00000000000000E+00  -9.82296608950658E-08  -9.11893908210614E-16  -9.82296618069597E-08
      7.05957957289772E-27
      1.90000000000000E-01
      1.90000000000000E+00   1.89999999998996E+00   0.00000000000000E+00   0.00000000000000E+00   1.00304671316029E-07
      3.02542067389385E-18   1.00304671319054E-07  -4.05233541394633E-30   0.00000000000000E+00   1.00304671319054E-11
      0.00000000000000E+00   0.00000000000000E+00  -1.00304670023229E-07  -1.29582487759113E-15  -1.00304671319054E-07
     -3.78630866641347E-27
      2.00000000000000E-01
      2.00000000000000E+00   1.99999999998974E+00   0.00000000000000E+00   0.00000000000000E+00   1.02511020078995E-07
     -8.78874290138767E-19   1.02511020078116E-07   1.15400835370293E-29   0.00000000000000E+00   1.02511020078116E-11
      0.00000000000000E+00   0.00000000000000E+00  -1.02511019569457E-07  -5.08659046685254E-16  -1.02511020078116E-07
      7.17067404585796E-27
      2.10000000000000E-01
      2.10000000000000E+00   2.09999999998952E+00   0.00000000000000E+00   0.00000000000000E+00   1.04886542958596E-07
     -2.80213617521321E-17   1.04886542930574E-07  -1.59371698742516E-30   0.00000000000000E+00   1.04886542930573E-11
      0.00000000000000E+00   0.00000000000000E+00  -1.04886542786319E-07  -1.44255578088695E-16  -1.04886542930575E-07
      2.95639037363726E-27
      2.20000000000000E-01
      2.20000000000000E+00   2.19999999998926E+00   0.00000000000000E+00   0.00000000000000E+00   1.07447916358124E-07
     -1.03862818246111E-19   1.07447916358020E-07  -3.51706424359670E-30   0.00000000000000E+00   1.07447916358020E-11
      0.00000000000000E+00   0.00000000000000E+00  -1.07447916368295E-07   1.02747503757510E-17  -1.07447916358020E-07
      3.05533993687930E-27
      2.30000000000000E-01
      2.30000000000000E+00   2.29999999998899E+00   0.00000000000000E+00   0.00000000000000E+00   1.10218486334700E-07
     -3.39413251841333E-17   1.10218486300758E-07  -1.19725342565773E-29   0.00000000000000E+00   1.10218486300759E-11
      0.00000000000000E+00   0.00000000000000E+00  -1.10218485846334E-07  -4.54423993660721E-16  -1.10218486300758E-07
      7.82969265287825E-27
      2.40000000000000E-01
      2.40000000000000E+00   2.39999999998868E+00   0.00000000000000E+00   0.00000000000000E+00   1.13239418870850E-07
     -6.87600923393447E-19   1.13239418870163E-07   7.13392480708910E-30   0.00000000000000E+00   1.13239418870163E-11
      0.00000000000000E+00   0.00000000000000E+00  -1.13239419106358E-07   2.36195738214893E-16  -1.13239418870162E-07
      1.45013125201160E-27
      2.50000000000000E-01
      2.50000000000000E+00   2.49999999998833E+00   0.00000000000000E+00   0.00000000000000E+00   1.16671108963414E-07
     -2.11175633412365E-19   1.16671108963203E-07   1.09171125704077E-29   0.00000000000000E+00   1.16671108963204E-11
      0.00000000000000E+00   0.00000000000000E+00  -1.16671109167357E-07   2.04154346343372E-16  -1.16671108963203E-07
      9.81211933042804E-27
      2.60000000000000E-01
      2.60000000000000E+00   2.59999999998797E+00   0.00000000000000E+00   0.00000000000000E+00   1.20164686118453E-07
     -9.46504993557409E-19   1.20164686117506E-07  -7.60266509750827E-30   0.00000000000000E+00   1.20164686117507E-11
      0.00000000000000E+00   0.00000000000000E+00  -1.20164686225912E-07   1.08407697485322E-16  -1.20164686117505E-07
      2.05873154856822E-27
      2.70000000000000E-01
      2.70000000000000E+00   2.69999999998764E+00   0.00000000000000E+00   0.00000000000000E+00   1.23749185710623E-07
     -1.81270321528698E-19   1.23749185710442E-07  -2.34672558300176E-30   0.00000000000000E+00   1.23749185710442E-11
      0.00000000000000E+00   0.00000000000000E+00  -1.23749186160615E-07   4.50174170814764E-16  -1.23749185710441E-07
     -9.44777203888159E-27
      2.80000000000000E-01
      2.80000000000000E+00   2.79999999998722E+00   0.00000000000000E+00   0.00000000000000E+00   1.27669523406491E-07
     -6.89095077675049E-19   1.27669523405802E-07   3.87088755959053E-31   0.00000000000000E+00   1.27669523405802E-11
      0.00000000000000E+00   0.00000000000000E+00  -1.27669523559844E-07   1.54042843260013E-16  -1.27669523405801E-07
      4.01352976616144E-27
      2.90000000000000E-01
      2.90000000000000E+00   2.89999999998681E+00   0.00000000000000E+00   0.00000000000000E+00   1.32012302074025E-07
      5.66523920624967E-16   1.32012302640549E-07  -1.27315911139657E-30   0.00000000000000E+00   1.32012302640549E-11
      0.00000000000000E+00   0.00000000000000E+00  -1.32010919510533E-07  -1.38313001588477E-12  -1.32012302640549E-07
     -8.51372687075239E-27
      3.00000000000000E-01
      3.00000000000000E+00   2.99999999998633E+00   0.00000000000000E+00   0.00000000000000E+00   1.36826806959958E-07
      5.39104762250819E-16   1.36826807499063E-07   1.89038422929690E-29   0.00000000000000E+00   1.36826807499062E-11
      0.00000000000000E+00   0.00000000000000E+00  -1.36824017943499E-07  -2.78955556418461E-12  -1.36826807499063E-07
      5.96852152813263E-27
      3.10000000000000E-01
      3.10000000000000E+00   3.09999999998579E+00   0.00000000000000E+00   0.00000000000000E+00   1.42166440767790E-07
      4.69016407005404E-16   1.42166441236807E-07  -3.75173680189688E-29   0.00000000000000E+00   1.42166441236807E-11
      0.00000000000000E+00   0.00000000000000E+00  -1.42162974498274E-07  -3.46673853349198E-12  -1.42166441236808E-07
     -7.00630648285885E-28
      3.20000000000000E-01
      3.20000000000000E+00   3.19999999998519E+00   0.00000000000000E+00   0.00000000000000E+00   1.48122621202468E-07
      3.28439479776019E-16   1.48122621530907E-07  -7.25186591242037E-30   0.00000000000000E+00   1.48122621530907E-11
      0.00000000000000E+00   0.00000000000000E+00  -1.48122734536967E-07   1.13006060761374E-13  -1.48122621530906E-07
      6.24538676083234E-27
      3.30000000000000E-01
      3.30000000000000E+00   3.29999999998453E+00   0.00000000000000E+00   0.00000000000000E+00   1.54786175815118E-07
      3.12093948286397E-16   1.54786176127212E-07  -7.31537266144491E-30   0.00000000000000E+00   1.54786176127211E-11
      0.00000000000000E+00   0.00000000000000E+00  -1.54786348280094E-07   1.72152882159259E-13  -1.54786176127211E-07
      2.31121018964251E-27
      3.40000000000000E-01
      3.40000000000000E+00   3.39999999998379E+00   0.00000000000000E+00   0.00000000000000E+00   1.62242700881153E-07
      3.72402599167629E-16   1.62242701253556E-07  -8.31031172949591E-30   0.00000000000000E+00   1.62242701253555E-11
      0.00000000000000E+00   0.00000000000000E+00  -1.62242740122860E-07   3.88693030348147E-14  -1.62242701253557E-07
     -4.80851329871234E-27
      3.50000000000000E-01
      3.50000000000000E+00   3.49999999998296E+00   0.00000000000000E+00   0.00000000000000E+00   1.70573739492183E-07
      4.36627299721321E-16   1.70573739928811E-07   7.01900783266376E-30   0.00000000000000E+00   1.70573739928810E-11
      0.00000000000000E+00   0.00000000000000E+00  -1.70573693351376E-07  -4.65774343824779E-14  -1.70573739928811E-07
     -4.50600343593034E-27
      3.60000000000000E-01
      3.60000000000000E+00   3.59999999998200E+00   0.00000000000000E+00   0.00000000000000E+00   1.79889343706866E-07
      4.84555011037106E-16   1.79889344191421E-07   1.95358856523084E-29   0.00000000000000E+00   1.79889344191421E-11
      0.00000000000000E+00   0.00000000000000E+00  -1.79889233967219E-07  -1.10224203730061E-13  -1.79889344191423E-07
      1.96157227082250E-27
      3.70000000000000E-01
      3.70000000000000E+00   3.69999999998096E+00   0.00000000000000E+00   0.00000000000000E+00   1.90336680104752E-07
      5.15585646867632E-16   1.90336680620338E-07  -1.90913384091367E-29   0.00000000000000E+00   1.90336680620337E-11
      0.00000000000000E+00   0.00000000000000E+00  -1.90336509121271E-07  -1.71499065615555E-13  -1.90336680620337E-07
      4.05388376897017E-27
      3.80000000000000E-01
      3.80000000000000E+00   3.79999999997980E+00   0.00000000000000E+00   0.00000000000000E+00   2.02093500672722E-07
      5.37080702942507E-16   2.02093501209802E-07  -9.42621603378412E-30   0.00000000000000E+00   2.02093501209801E-11
      0.00000000000000E+00   0.00000000000000E+00  -2.02093277268533E-07  -2.23941270111156E-13  -2.02093501209803E-07
     -3.80537278764446E-27
      3.90000000000000E-01
      3.90000000000000E+00   3.89999999997845E+00   0.00000000000000E+00   0.00000000000000E+00   2.15367200088056E-07
      5.55121560204959E-16   2.15367200643178E-07  -2.24390513220013E-30   0.00000000000000E+00   2.15367200643177E-11
      0.00000000000000E+00   0.00000000000000E+00  -2.15366951138320E-07  -2.49504856872804E-13  -2.15367200643177E-07
     -5.32885735891030E-27
      4.00000000000000E-01
      4.00000000000000E+00   3.99999999997697E+00   0.00000000000000E+00   0.00000000000000E+00   2.30410200402001E-07
      5.70399799309402E-16   2.30410200972401E-07  -6.68937756391738E-30   0.00000000000000E+00   2.30410200972401E-11
      0.00000000000000E+00   0.00000000000000E+00  -2.30409966494264E-07  -2.34478136067307E-13  -2.30410200972400E-07
      4.03104553236858E-27
      4.10000000000000E-01
      4.10000000000000E+00   4.09999999997525E+00   0.00000000000000E+00   0.00000000000000E+00   2.47546641589686E-07
      5.80944185659574E-16   2.47546642170630E-07  -9.25686470305203E-30   0.00000000000000E+00   2.47546642170629E-11
      0.00000000000000E+00   0.00000000000000E+00  -2.47546463013749E-07  -1.79156879682240E-13  -2.47546642170628E-07
      8.28505418816958E-27
      4.20000000000000E-01
      4.20000000000000E+00   4.19999999997327E+00   0.00000000000000E+00   0.00000000000000E+00   2.67196897762573E-07
      5.86709278299987E-16   2.67196898349283E-07   4.17330065018353E-31   0.00000000000000E+00   2.67196898349282E-11
      0.00000000000000E+00   0.00000000000000E+00  -2.67196800863517E-07  -9.74857661304468E-14  -2.67196898349284E-07
      1.28900555734364E-28
      4.30000000000000E-01
      4.30000000000000E+00   4.29999999997098E+00   0.00000000000000E+00   0.00000000000000E+00   2.89894600959711E-07
      5.89709557378902E-16   2.89894601549421E-07  -2.70659716080744E-29   0.00000000000000E+00   2.89894601549418E-11
      0.00000000000000E+00   0.00000000000000E+00  -2.89894588988897E-07  -1.25605244609132E-14  -2.89894601549422E-07
      1.74538320061937E-27
      4.40000000000000E-01
      4.40000000000000E+00   4.39999999996838E+00   0.00000000000000E+00   0.00000000000000E+00   3.16302122791765E-07
      5.92465753939088E-16   3.16302123384231E-07   1.83655469917135E-29   0.00000000000000E+00   3.16302123384232E-11
      0.00000000000000E+00   0.00000000000000E+00  -3.16302180395039E-07   5.70108090589785E-14  -3.16302123384230E-07
      2.07615054258638E-27
      4.50000000000000E-01
      4.50000000000000E+00   4.49999999996528E+00   0.00000000000000E+00   0.00000000000000E+00   3.47232016462334E-07
      5.97681395108667E-16   3.47232017060015E-07  -1.00310422149701E-29   0.00000000000000E+00   3.47232017060015E-11
      0.00000000000000E+00   0.00000000000000E+00  -3.47232106329347E-07   8.92693310920592E-14  -3.47232017060016E-07
      1.38684224041230E-27
      4.60000000000000E-01
      4.60000000000000E+00   4.59999999996162E+00   0.00000000000000E+00   0.00000000000000E+00   3.83678633541221E-07
      6.06623416316871E-16   3.83678634147845E-07  -4.21261435196063E-30   0.00000000000000E+00   3.83678634147845E-11
      0.00000000000000E+00   0.00000000000000E+00  -3.83678691644857E-07   5.74970097211455E-14  -3.83678634147847E-07
      6.23870947979205E-27
      4.70000000000000E-01
      4.70000000000000E+00   4.69999999995733E+00   0.00000000000000E+00   0.00000000000000E+00   4.26863994839957E-07
      6.17520316519754E-16   4.26863995457477E-07   1.19816066492950E-29   0.00000000000000E+00   4.26863995457477E-11
      0.00000000000000E+00   0.00000000000000E+00  -4.26863893705833E-07  -1.01751646616335E-13  -4.26863995457480E-07
      8.01099534895057E-27
      4.80000000000000E-01
      4.80000000000000E+00   4.79999999995219E+00   0.00000000000000E+00   0.00000000000000E+00   4.78306427671030E-07
      6.29190959458656E-16   4.78306428300221E-07   1.01520074512073E-29   0.00000000000000E+00   4.78306428300223E-11
      0.00000000000000E+00   0.00000000000000E+00  -4.78305874298409E-07  -5.54001812806072E-13  -4.78306428300221E-07
     -9.36561245042928E-28
      4.90000000000000E-01
      4.90000000000000E+00   4.89999999994604E+00   0.00000000000000E+00   0.00000000000000E+00   5.39925354838780E-07
      6.44817586602453E-16   5.39925355483597E-07  -5.74584872126719E-30   0.00000000000000E+00   5.39925355483598E-11
      0.00000000000000E+00   0.00000000000000E+00  -5.39924361788551E-07  -9.93695046288301E-13  -5.39925355483597E-07
     -4.42674701314772E-27
      5.00000000000000E-01
      5.00000000000000E+00   4.99999999993861E+00   0.00000000000000E+00   0.00000000000000E+00   6.14193787596313E-07
      6.68113556241550E-16   6.14193788264426E-07   2.69752476808965E-29   0.00000000000000E+00   6.14193788264425E-11
      0.00000000000000E+00   0.00000000000000E+00  -6.14193137008771E-07  -6.51255648954419E-13  -6.14193788264419E-07
     -4.02988426610071E-27
      5.10000000000000E-01
      5.10000000000000E+00   5.09999999992955E+00   0.00000000000000E+00   0.00000000000000E+00   7.04350886306743E-07
      7.02872036629979E-16   7.04350887009615E-07  -2.70810922626040E-29   0.00000000000000E+00   7.04350887009615E-11
      0.00000000000000E+00   0.00000000000000E+00  -7.04350760639361E-07  -1.26370255224799E-13  -7.04350887009616E-07
      1.44049274198822E-26
      5.20000000000000E-01
      5.20000000000000E+00   5.19999999991853E+00   0.00000000000000E+00   0.00000000000000E+00   8.14704506573768E-07
      7.57660851279892E-16   8.14704507331429E-07   3.06949286951905E-30   0.00000000000000E+00   8.14704507331430E-11
      0.00000000000000E+00   0.00000000000000E+00  -8.14704559652994E-07   5.23215631970813E-14  -8.14704507331431E-07
      2.22382490298476E-28
      5.30000000000000E-01
      5.30000000000000E+00   5.29999999990490E+00   0.00000000000000E+00   0.00000000000000E+00   9.51069524245683E-07
      8.32555640395353E-16   9.51069525078239E-07  -3.29932681836974E-30   0.00000000000000E+00   9.51069525078236E-11
      0.00000000000000E+00   0.00000000000000E+00  -9.51069600903500E-07   7.58252641782012E-14  -9.51069525078236E-07
     -1.26945757516771E-27
      5.40000000000000E-01
      5.40000000000000E+00   5.39999999988787E+00   0.00000000000000E+00   0.00000000000000E+00   1.12143566530598E-06
      9.15602795235680E-16   1.12143566622158E-06  -2.29924672777865E-29   0.00000000000000E+00   1.12143566622158E-10
      0.00000000000000E+00   0.00000000000000E+00  -1.12143574062360E-06   7.44020307488758E-14  -1.12143566622157E-06
      2.57278541648184E-27
      5.50000000000000E-01
      5.50000000000000E+00   5.49999999986632E+00   0.00000000000000E+00   0.00000000000000E+00   1.33704397515666E-06
      9.94458371721584E-16   1.33704397615112E-06  -8.16817757691719E-30   0.00000000000000E+00   1.33704397615112E-10
      0.00000000000000E+00   0.00000000000000E+00  -1.33704404953921E-06   7.33880888888292E-14  -1.33704397615112E-06
     -2.49072260021852E-27
      5.60000000000000E-01
      5.60000000000000E+00   5.59999999983859E+00   0.00000000000000E+00   0.00000000000000E+00   1.61421037663835E-06
      1.06384001192286E-15   1.61421037770219E-06  -9.21452687036901E-30   0.00000000000000E+00   1.61421037770219E-10
      0.00000000000000E+00   0.00000000000000E+00  -1.61421045227755E-06   7.45753601410876E-14  -1.61421037770219E-06
     -1.91347649289459E-27
      5.70000000000000E-01
      5.70000000000000E+00   5.69999999980223E+00   0.00000000000000E+00   0.00000000000000E+00   1.97756247450334E-06
      1.12014676760152E-15   1.97756247562349E-06   3.70214105503963E-29   0.00000000000000E+00   1.97756247562349E-10
      0.00000000000000E+00   0.00000000000000E+00  -1.97756255008071E-06   7.44572124818518E-14  -1.97756247562350E-06
     -6.93324348017158E-27
      5.80000000000000E-01
      5.80000000000000E+00   5.79999999975338E+00   0.00000000000000E+00   0.00000000000000E+00   2.46608653949765E-06
      1.15773567543771E-15   2.46608654065539E-06   4.65988331294769E-29   0.00000000000000E+00   2.46608654065539E-10
      0.00000000000000E+00   0.00000000000000E+00  -2.46608661410299E-06   7.34476088830077E-14  -2.46608654065538E-06
      4.38407047780324E-27
      5.90000000000000E-01
      5.90000000000000E+00   5.89999999968552E+00   0.00000000000000E+00   0.00000000000000E+00   3.14524931801612E-06
     -1.83907127913359E-20   3.14524931801610E-06  -3.99185279582773E-30   0.00000000000000E+00   3.14524931801611E-10
      0.00000000000000E+00   0.00000000000000E+00  -3.14524931762099E-06  -3.95105435528311E-16  -3.14524931801609E-06
      7.20875390222544E-27
      6.00000000000000E-01
      6.00000000000000E+00   5.99999999958658E+00   0.00000000000000E+00   0.00000000000000E+00   4.13377828292570E-06
      9.60587205692168E-20   4.13377828292580E-06   3.16324092760288E-30   0.00000000000000E+00   4.13377828292582E-10
      0.00000000000000E+00   0.00000000000000E+00  -4.13377828246241E-06  -4.63403976209757E-16  -4.13377828292582E-06
      7.86951440864754E-27
      6.10000000000000E-01
      6.10000000000000E+00   6.09999999943293E+00   0.00000000000000E+00   0.00000000000000E+00   5.67096087393432E-06
      7.96861311750026E-19   5.67096087393512E-06  -3.32624158343251E-29   0.00000000000000E+00   5.67096087393514E-10
      0.00000000000000E+00   0.00000000000000E+00  -5.67096087340946E-06  -5.25609694558815E-16  -5.67096087393507E-06
      6.49631704688280E-28
      6.20000000000000E-01
      6.20000000000000E+00   6.19999999916815E+00   0.00000000000000E+00   0.00000000000000E+00   8.31867744345455E-06
      7.87036478205431E-18   8.31867744346242E-06  -3.19832084611167E-29   0.00000000000000E+00   8.31867744346245E-10
      0.00000000000000E+00   0.00000000000000E+00  -8.31867744312220E-06  -3.40210202463124E-16  -8.31867744346241E-06
      5.48504767193977E-27
      6.30000000000000E-01
      6.30000000000000E+00   6.29999999862471E+00   0.00000000000000E+00   0.00000000000000E+00   1.37529933161532E-05
      1.69494084250352E-16   1.37529933163227E-05   1.57012876635891E-29   0.00000000000000E+00   1.37529933163227E-09
      0.00000000000000E+00   0.00000000000000E+00  -1.37529933266184E-05   1.02959060491313E-14  -1.37529933163225E-05
     -4.37149009323457E-27
      6.40000000000000E-01
      6.40000000000000E+00   6.39999999702950E+00   0.00000000000000E+00   0.00000000000000E+00   2.97052776415293E-05
      3.26617979082930E-17   2.97052776415619E-05  -4.80836814042886E-30   0.00000000000000E+00   2.97052776415619E-09
      0.00000000000000E+00   0.00000000000000E+00  -2.97052776491987E-05   7.63688285038952E-15  -2.97052776415618E-05
     -1.87612242794454E-27
      6.42500000000000E-01
      6.42500000000000E+00   6.42499999598204E+00   0.00000000000000E+00   0.00000000000000E+00   4.01795564963063E-05
      1.99455688731998E-18   4.01795564963083E-05   4.92207546249183E-29   0.00000000000000E+00   4.01795564963083E-09
      0.00000000000000E+00   0.00000000000000E+00  -4.01795564975022E-05   1.19409003755194E-15  -4.01795564963081E-05
      7.26952683691101E-28
      6.43583333333334E-01
      6.43583333333334E+00   6.43583332842333E+00   0.00000000000000E+00   0.00000000000000E+00   4.91004044994789E-05
      5.50124144879690E-18   4.91004044994844E-05  -1.43041391850494E-29   0.00000000000000E+00   4.91004044994843E-09
      0.00000000000000E+00   0.00000000000000E+00  -4.91004044999904E-05   5.06055909160715E-16  -4.91004044994843E-05
      1.94599194839515E-27
      6.44052777777778E-01
      6.44052777777778E+00   6.44052777217843E+00   0.00000000000000E+00   0.00000000000000E+00   5.59936577376665E-05
     -3.67448752966051E-18   5.59936577376628E-05  -5.73496185000584E-29   0.00000000000000E+00   5.59936577376628E-09
      0.00000000000000E+00   0.00000000000000E+00  -5.59936577376685E-05   5.41988873205477E-18  -5.59936577376631E-05
      1.93312124725951E-27
      6.44459629629630E-01
      6.44459629629630E+00   6.44459628968533E+00   0.00000000000000E+00   0.00000000000000E+00   6.61101288365707E-05
      5.34888810507841E-17   6.61101288366242E-05   3.98822383874061E-29   0.00000000000000E+00   6.61101288366242E-09
      0.00000000000000E+00   0.00000000000000E+00  -6.61101288678468E-05   3.12225411059119E-14  -6.61101288366243E-05
     -9.35593523153030E-28
      6.44798672839506E-01
      6.44798672839506E+00   6.44798672061804E+00   0.00000000000000E+00   0.00000000000000E+00   7.77700064940232E-05
      3.62298739892678E-16   7.77700064943855E-05   2.13745572431139E-29   0.00000000000000E+00   7.77700064943856E-09
      0.00000000000000E+00   0.00000000000000E+00  -7.77700067065822E-05   2.12196508933809E-13  -7.77700064943857E-05
     -3.19135324850441E-27
      6.45386347736626E-01
      6.45386347736626E+00   6.45386346727585E+00   0.00000000000000E+00   0.00000000000000E+00   1.00903618980268E-04
      1.54518987051226E-16   1.00903618980422E-04  -2.03584492587214E-29   0.00000000000000E+00   1.00903618980422E-08
      0.00000000000000E+00   0.00000000000000E+00  -1.00903619083983E-04   1.03561437262125E-13  -1.00903618980421E-04
     -5.06970143679571E-27
      6.46404984224966E-01
      6.46404984224966E+00   6.46404982793383E+00   0.00000000000000E+00   0.00000000000000E+00   1.43158425592072E-04
      1.68340967656740E-15   1.43158425593756E-04  -1.60914005504541E-29   0.00000000000000E+00   1.43158425593756E-08
      0.00000000000000E+00   0.00000000000000E+00  -1.43158428086799E-04   2.49304434212883E-12  -1.43158425593755E-04
     -1.91608934199731E-28
      6.48238529903978E-01