DF-ISE text

Info {
  version   = 1.0
  type      = xyplot
  datasets  = [
    "time"
    "ntype OuterVoltage" "ntype InnerVoltage" "ntype QuasiFermiPotential" "ntype DisplacementCurrent" "ntype eCurrent"
    "ntype hCurrent" "ntype TotalCurrent" "ntype Charge" "ptype OuterVoltage" "ptype InnerVoltage"
    "ptype QuasiFermiPotential" "ptype DisplacementCurrent" "ptype eCurrent" "ptype hCurrent" "ptype TotalCurrent"
    "ptype Charge" ]
  functions = [
    Time
    OuterVoltage InnerVoltage QuasiFermiPotential DisplacementCurrent eCurrent
    hCurrent TotalCurrent Charge OuterVoltage InnerVoltage
    QuasiFermiPotential DisplacementCurrent eCurrent hCurrent TotalCurrent
    Charge ]
}

Data {
      0.00000000000000E+00
      0.00000000000000E+00   0.00000000000000E+00   0.00000000000000E+00   0.00000000000000E+00   4.01163441921648E-07
     -4.01163441921655E-07  -6.77433198022312E-21   9.63415715988668E-14   0.00000000000000E+00   0.00000000000000E+00
      0.00000000000000E+00   0.00000000000000E+00   7.47382422330482E-07  -7.47382422330449E-07   3.31804015357867E-20
     -9.79512195238939E-14
      0.00000000000000E+00
      0.00000000000000E+00   0.00000000000000E+00   0.00000000000000E+00   0.00000000000000E+00   9.19144680979314E-07
     -4.01158623384476E-07   5.17986057594838E-07   9.63415378699514E-14   0.00000000000000E+00   0.00000000000000E+00
      0.00000000000000E+00   0.00000000000000E+00   1.28809015281620E-07  -6.46795073050367E-07  -5.17986057768746E-07
     -9.79511857970430E-14
      0.00000000000000E+00
      0.00000000000000E+00   0.00000000000000E+00   0.00000000000000E+00   0.00000000000000E+00   7.83354752612412E-07
     -5.90825410427975E-19   7.83354752611822E-07   9.63018252045159E-14   0.00000000000000E+00   0.00000000000000E+00
      0.00000000000000E+00   0.00000000000000E+00  -7.83354752590696E-07  -2.11402556346619E-17  -7.83354752611837E-07
     -9.79114620186467E-14
      1.00000000000000E-03
      2.00000000000000E-03   2.00000000000000E-03   0.00000000000000E+00   0.00000000000000E+00   7.83579060298212E-07
     -4.87926472315590E-20   7.83579060298163E-07   9.65174836617382E-14   0.00000000000000E+00   0.00000000000000E+00
      0.00000000000000E+00   0.00000000000000E+00  -7.83579060299343E-07   1.18148815150065E-18  -7.83579060298162E-07
     -9.81271204764253E-14
      2.00000000000000E-03
      4.00000000000000E-03   4.00000000000000E-03   0.00000000000000E+00   0.00000000000000E+00   7.83800528925672E-07
      4.30070712354152E-20   7.83800528925715E-07   9.67328050490758E-14   0.00000000000000E+00   0.00000000000000E+00
      0.00000000000000E+00   0.00000000000000E+00  -7.83800528921365E-07  -4.36736117307460E-18  -7.83800528925732E-07
     -9.83424418643325E-14
      3.00000000000000E-03
      6.00000000000000E-03   6.00000000000000E-03   0.00000000000000E+00   0.00000000000000E+00   7.84019282692493E-07
      4.64976559575271E-20   7.84019282692540E-07   9.69477910762013E-14   0.00000000000000E+00   0.00000000000000E+00
      0.00000000000000E+00   0.00000000000000E+00  -7.84019282674934E-07  -1.76217422445345E-17  -7.84019282692556E-07
     -9.85574278920403E-14
      4.00000000000000E-03
      8.00000000000000E-03   8.00000000000000E-03   0.00000000000000E+00   0.00000000000000E+00   7.84235440785887E-07
      4.86651289647517E-20   7.84235440785936E-07   9.71624434382670E-14   0.00000000000000E+00   0.00000000000000E+00
      0.00000000000000E+00   0.00000000000000E+00  -7.84235440791309E-07   5.36081634613189E-18  -7.84235440785948E-07
     -9.87720802546939E-14
      5.00000000000000E-03
      1.00000000000000E-02   1.00000000000000E-02   0.00000000000000E+00   0.00000000000000E+00   7.84449117566438E-07
      5.07806225831772E-20   7.84449117566489E-07   9.73767638160744E-14   0.00000000000000E+00   0.00000000000000E+00
      0.00000000000000E+00   0.00000000000000E+00  -7.84449117562140E-07  -4.30138203345050E-18  -7.84449117566442E-07
     -9.89864006331064E-14
      6.00000000000000E-03
      1.20000000000000E-02   1.20000000000000E-02   0.00000000000000E+00   0.00000000000000E+00   7.84660422742752E-07
      5.12256876615574E-20   7.84660422742804E-07   9.75907538762329E-14   0.00000000000000E+00   0.00000000000000E+00
      0.00000000000000E+00   0.00000000000000E+00  -7.84660422730126E-07  -1.26618906221045E-17  -7.84660422742788E-07
     -9.92003906938781E-14
      7.00000000000000E-03
      1.40000000000000E-02   1.40000000000000E-02   0.00000000000000E+00   0.00000000000000E+00   7.84869461537479E-07
      5.03500037245411E-20   7.84869461537529E-07   9.78044152713193E-14   0.00000000000000E+00   0.00000000000000E+00
      0.00000000000000E+00   0.00000000000000E+00  -7.84869461531299E-07  -6.24920343722322E-18  -7.84869461537548E-07
     -9.94140520895819E-14
      8.00000000000000E-03
      1.60000000000000E-02   1.60000000000000E-02   0.00000000000000E+00   0.00000000000000E+00   7.85076334845185E-07
      5.12616006938186E-20   7.85076334845236E-07   9.80177496400359E-14   0.00000000000000E+00   0.00000000000000E+00
      0.00000000000000E+00   0.00000000000000E+00  -7.85076334826562E-07  -1.86424474448241E-17  -7.85076334845204E-07
     -9.96273864589308E-14
      9.00000000000000E-03
      1.80000000000000E-02   1.80000000000000E-02   0.00000000000000E+00   0.00000000000000E+00   7.85281139382613E-07
      5.06519567194744E-20   7.85281139382663E-07   9.82307586073688E-14   0.00000000000000E+00   0.00000000000000E+00
      0.00000000000000E+00   0.00000000000000E+00  -7.85281139395072E-07   1.24404008505886E-17  -7.85281139382632E-07
     -9.98403954269054E-14
      1.00000000000000E-02
      2.00000000000000E-02   2.00000000000000E-02   0.00000000000000E+00   0.00000000000000E+00   7.85483967831790E-07
      4.96204696274602E-20   7.85483967831840E-07   9.84434437847388E-14   0.00000000000000E+00   0.00000000000000E+00
      0.00000000000000E+00   0.00000000000000E+00  -7.85483967830228E-07  -1.60784149980163E-18  -7.85483967831836E-07
     -1.00053080604927E-13
      1.10000000000000E-02
      2.20000000000000E-02   2.20000000000000E-02   0.00000000000000E+00   0.00000000000000E+00   7.85684908976431E-07
      4.99868230599445E-20   7.85684908976481E-07   9.86558067701545E-14   0.00000000000000E+00   0.00000000000000E+00
      0.00000000000000E+00   0.00000000000000E+00  -7.85684908974406E-07  -2.05424012448719E-18  -7.85684908976460E-07
     -1.00265443590996E-13
      1.20000000000000E-02
      2.40000000000000E-02   2.40000000000000E-02   0.00000000000000E+00   0.00000000000000E+00   7.85884047832160E-07
      4.78185399843231E-20   7.85884047832208E-07   9.88678491483630E-14   0.00000000000000E+00   0.00000000000000E+00
      0.00000000000000E+00   0.00000000000000E+00  -7.85884047812613E-07  -1.96193792199967E-17  -7.85884047832233E-07
     -1.00477485969874E-13
      1.30000000000000E-02
      2.60000000000000E-02   2.60000000000000E-02   0.00000000000000E+00   0.00000000000000E+00   7.86081465770988E-07
      4.61774089179646E-20   7.86081465771034E-07   9.90795724909964E-14   0.00000000000000E+00   0.00000000000000E+00
      0.00000000000000E+00   0.00000000000000E+00  -7.86081465778667E-07   7.61706680494709E-18  -7.86081465771050E-07
     -1.00689209313182E-13
      1.40000000000000E-02
      2.80000000000000E-02   2.80000000000000E-02   0.00000000000000E+00   0.00000000000000E+00   7.86277240640387E-07
      4.38400915701963E-20   7.86277240640431E-07   9.92909783567234E-14   0.00000000000000E+00   0.00000000000000E+00
      0.00000000000000E+00   0.00000000000000E+00  -7.86277240659969E-07   1.95353914689138E-17  -7.86277240640434E-07
     -1.00900615179594E-13
      1.50000000000000E-02
      3.00000000000000E-02   3.00000000000000E-02   0.00000000000000E+00   0.00000000000000E+00   7.86471446877590E-07
      4.19756516491007E-20   7.86471446877633E-07   9.95020682913880E-14   0.00000000000000E+00   0.00000000000000E+00
      0.00000000000000E+00   0.00000000000000E+00  -7.86471446898424E-07   2.07987098798085E-17  -7.86471446877626E-07
     -1.01111705114949E-13
      1.60000000000000E-02
      3.20000000000000E-02   3.20000000000000E-02   0.00000000000000E+00   0.00000000000000E+00   7.86664155619295E-07
      3.95834521674445E-20   7.86664155619335E-07   9.97128438281556E-14   0.00000000000000E+00   0.00000000000000E+00
      0.00000000000000E+00   0.00000000000000E+00  -7.86664155623227E-07   3.87268719395575E-18  -7.86664155619354E-07
     -1.01322480652412E-13
      1.70000000000000E-02
      3.40000000000000E-02   3.40000000000000E-02   0.00000000000000E+00   0.00000000000000E+00   7.86855434807363E-07
      3.70833110719053E-20   7.86855434807400E-07   9.99233064876533E-14   0.00000000000000E+00   0.00000000000000E+00
      0.00000000000000E+00   0.00000000000000E+00  -7.86855434796769E-07  -1.06136172021901E-17  -7.86855434807383E-07
     -1.01532943312616E-13
      1.80000000000000E-02
      3.60000000000000E-02   3.60000000000000E-02   0.00000000000000E+00   0.00000000000000E+00   7.87045349290779E-07
      3.54137601059567E-20   7.87045349290815E-07   1.00133457778110E-13   0.00000000000000E+00   0.00000000000000E+00
      0.00000000000000E+00   0.00000000000000E+00  -7.87045349329066E-07   3.82436898949983E-17  -7.87045349290823E-07
     -1.01743094603788E-13
      1.90000000000000E-02
      3.80000000000000E-02   3.80000000000000E-02   0.00000000000000E+00   0.00000000000000E+00   7.87233960924275E-07
      3.19395117631816E-20   7.87233960924307E-07   1.00343299195490E-13   0.00000000000000E+00   0.00000000000000E+00
      0.00000000000000E+00   0.00000000000000E+00  -7.87233960924578E-07   2.59227675760865E-19  -7.87233960924319E-07
     -1.01952936021883E-13
      2.00000000000000E-02
      4.00000000000000E-02   4.00000000000000E-02   0.00000000000000E+00   0.00000000000000E+00   7.87421328663991E-07
      2.98799128641402E-20   7.87421328664021E-07   1.00552832223636E-13   0.00000000000000E+00   0.00000000000000E+00
      0.00000000000000E+00   0.00000000000000E+00  -7.87421328653224E-07  -1.07995263493736E-17  -7.87421328664023E-07
     -1.02162469050752E-13
      2.10000000000000E-02
      4.20000000000000E-02   4.20000000000000E-02   0.00000000000000E+00   0.00000000000000E+00   7.87607508660427E-07
      2.64309791587673E-20   7.87607508660453E-07   1.00762058334394E-13   0.00000000000000E+00   0.00000000000000E+00
      0.00000000000000E+00   0.00000000000000E+00  -7.87607508637528E-07  -2.29300187012883E-17  -7.87607508660458E-07
     -1.02371695162244E-13
      2.20000000000000E-02
      4.40000000000000E-02   4.40000000000000E-02   0.00000000000000E+00   0.00000000000000E+00   7.87792554349094E-07
      2.42969889786133E-20   7.87792554349118E-07   1.00970978987753E-13   0.00000000000000E+00   0.00000000000000E+00
      0.00000000000000E+00   0.00000000000000E+00  -7.87792554332428E-07  -1.66935727602004E-17  -7.87792554349122E-07
     -1.02580615816341E-13
      2.30000000000000E-02
      4.60000000000000E-02   4.60000000000000E-02   0.00000000000000E+00   0.00000000000000E+00   7.87976516539058E-07
      2.24116897962984E-20   7.87976516539081E-07   1.01179595631970E-13   0.00000000000000E+00   0.00000000000000E+00
      0.00000000000000E+00   0.00000000000000E+00  -7.87976516528302E-07  -1.07960490074377E-17  -7.87976516539098E-07
     -1.02789232461298E-13
      2.40000000000000E-02
      4.80000000000000E-02   4.80000000000000E-02   0.00000000000000E+00   0.00000000000000E+00   7.88159443499709E-07
      1.90417377596203E-20   7.88159443499728E-07   1.01387909703702E-13   0.00000000000000E+00   0.00000000000000E+00
      0.00000000000000E+00   0.00000000000000E+00  -7.88159443515130E-07   1.53846903993526E-17  -7.88159443499745E-07
     -1.02997546533781E-13
      2.50000000000000E-02
      5.00000000000000E-02   5.00000000000000E-02   0.00000000000000E+00   0.00000000000000E+00   7.88341381045952E-07
      1.62445715852289E-20   7.88341381045968E-07   1.01595922628130E-13   0.00000000000000E+00   0.00000000000000E+00
      0.00000000000000E+00   0.00000000000000E+00  -7.88341381050330E-07   4.33376748381933E-18  -7.88341381045997E-07
     -1.03205559458962E-13
      2.60000000000000E-02
      5.20000000000000E-02   5.20000000000000E-02   0.00000000000000E+00   0.00000000000000E+00   7.88522372622085E-07
      1.36573481370263E-20   7.88522372622098E-07   1.01803635819086E-13   0.00000000000000E+00   0.00000000000000E+00
      0.00000000000000E+00   0.00000000000000E+00  -7.88522372648437E-07   2.63426999701483E-17  -7.88522372622094E-07
     -1.03413272650678E-13
      2.70000000000000E-02
      5.40000000000000E-02   5.40000000000000E-02   0.00000000000000E+00   0.00000000000000E+00   7.88702459384489E-07
      1.10066693310688E-20   7.88702459384500E-07   1.02011050679176E-13   0.00000000000000E+00   0.00000000000000E+00
      0.00000000000000E+00   0.00000000000000E+00  -7.88702459387263E-07   2.76856784182833E-18  -7.88702459384494E-07
     -1.03620687511533E-13
      2.80000000000000E-02
      5.60000000000000E-02   5.60000000000000E-02   0.00000000000000E+00   0.00000000000000E+00   7.88881680283380E-07
      8.63802933862155E-21   7.88881680283389E-07   1.02218168599903E-13   0.00000000000000E+00   0.00000000000000E+00
      0.00000000000000E+00   0.00000000000000E+00  -7.88881680281467E-07  -1.89544381077158E-18  -7.88881680283363E-07
     -1.03827805433028E-13
      2.90000000000000E-02
      5.80000000000000E-02   5.80000000000000E-02   0.00000000000000E+00   0.00000000000000E+00   7.89060072143706E-07
      6.52503343108644E-21   7.89060072143712E-07   1.02424990961780E-13   0.00000000000000E+00   0.00000000000000E+00
      0.00000000000000E+00   0.00000000000000E+00  -7.89060072156812E-07   1.31291154098518E-17  -7.89060072143683E-07
     -1.04034627795679E-13
      3.00000000000000E-02
      6.00000000000000E-02   6.00000000000000E-02   0.00000000000000E+00   0.00000000000000E+00   7.89237669745319E-07
      3.76189012936358E-21   7.89237669745322E-07   1.02631519134461E-13   0.00000000000000E+00   0.00000000000000E+00
      0.00000000000000E+00   0.00000000000000E+00  -7.89237669756302E-07   1.09576265004808E-17  -7.89237669745344E-07
     -1.04241155969140E-13
      3.10000000000000E-02
      6.20000000000000E-02   6.20000000000000E-02   0.00000000000000E+00   0.00000000000000E+00   7.89414505902507E-07
      1.30900302364185E-21   7.89414505902508E-07   1.02837754476847E-13   0.00000000000000E+00   0.00000000000000E+00
      0.00000000000000E+00   0.00000000000000E+00  -7.89414505903910E-07   1.38324958609473E-18  -7.89414505902526E-07
     -1.04447391312309E-13
      3.20000000000000E-02
      6.40000000000000E-02   6.40000000000000E-02   0.00000000000000E+00   0.00000000000000E+00   7.89590611543015E-07
     -1.12646761154719E-21   7.89590611543014E-07   1.03043698337206E-13   0.00000000000000E+00   0.00000000000000E+00
      0.00000000000000E+00   0.00000000000000E+00  -7.89590611556171E-07   1.31422238180717E-17  -7.89590611543029E-07
     -1.04653335173455E-13
      3.30000000000000E-02
      6.60000000000000E-02   6.60000000000000E-02   0.00000000000000E+00   0.00000000000000E+00   7.89766015786455E-07
     -3.67636040779407E-21   7.89766015786451E-07   1.03249352053284E-13   0.00000000000000E+00   0.00000000000000E+00
      0.00000000000000E+00   0.00000000000000E+00  -7.89766015786653E-07   2.22410078526778E-19  -7.89766015786430E-07
     -1.04858988890331E-13
      3.40000000000000E-02
      6.80000000000000E-02   6.80000000000000E-02   0.00000000000000E+00   0.00000000000000E+00   7.89940746022263E-07
     -5.48031522192336E-21   7.89940746022257E-07   1.03454716952421E-13   0.00000000000000E+00   0.00000000000000E+00
      0.00000000000000E+00   0.00000000000000E+00  -7.89940746018685E-07  -3.55672036749184E-18  -7.89940746022242E-07
     -1.05064353790268E-13
      3.50000000000000E-02
      7.00000000000000E-02   7.00000000000000E-02   0.00000000000000E+00   0.00000000000000E+00   7.90114827987101E-07
     -7.99179727501867E-21   7.90114827987093E-07   1.03659794351660E-13   0.00000000000000E+00   0.00000000000000E+00
      0.00000000000000E+00   0.00000000000000E+00  -7.90114828003765E-07   1.66636765470336E-17  -7.90114827987101E-07
     -1.05269431190308E-13
      3.60000000000000E-02
      7.20000000000001E-02   7.20000000000001E-02   0.00000000000000E+00   0.00000000000000E+00   7.90288285841680E-07
     -1.00572016642377E-20   7.90288285841670E-07   1.03864585557852E-13   0.00000000000000E+00   0.00000000000000E+00
      0.00000000000000E+00   0.00000000000000E+00  -7.90288285850951E-07   9.27530872098160E-18  -7.90288285841675E-07
     -1.05474222397304E-13
      3.70000000000000E-02
      7.40000000000001E-02   7.40000000000001E-02   0.00000000000000E+00   0.00000000000000E+00   7.90461142247022E-07
     -1.18558910337873E-20   7.90461142247011E-07   1.04069091867769E-13   0.00000000000000E+00   0.00000000000000E+00
      0.00000000000000E+00   0.00000000000000E+00  -7.90461142237159E-07  -9.85281762337377E-18  -7.90461142247011E-07
     -1.05678728708033E-13
      3.80000000000000E-02
      7.60000000000001E-02   7.60000000000001E-02   0.00000000000000E+00   0.00000000000000E+00   7.90633418439939E-07
     -1.39698320211188E-20   7.90633418439925E-07   1.04273314568209E-13   0.00000000000000E+00   0.00000000000000E+00
      0.00000000000000E+00   0.00000000000000E+00  -7.90633418409605E-07  -3.03460572923550E-17  -7.90633418439952E-07
     -1.05882951409287E-13
      3.90000000000000E-02
      7.80000000000001E-02   7.80000000000001E-02   0.00000000000000E+00   0.00000000000000E+00   7.90805134307806E-07
     -1.58010591379427E-20   7.90805134307790E-07   1.04477254936098E-13   0.00000000000000E+00   0.00000000000000E+00
      0.00000000000000E+00   0.00000000000000E+00  -7.90805134304658E-07  -3.13579532823501E-18  -7.90805134307794E-07
     -1.06086891777995E-13
      4.00000000000000E-02
      8.00000000000001E-02   8.00000000000001E-02   0.00000000000000E+00   0.00000000000000E+00   7.90976308462325E-07
     -1.73721192879719E-20   7.90976308462308E-07   1.04680914238596E-13   0.00000000000000E+00   0.00000000000000E+00
      0.00000000000000E+00   0.00000000000000E+00  -7.90976308456861E-07  -5.46047901441634E-18  -7.90976308462321E-07
     -1.06290551081316E-13
      4.10000000000000E-02
      8.20000000000001E-02   8.20000000000001E-02   0.00000000000000E+00   0.00000000000000E+00   7.91146958312366E-07
     -1.92444573759370E-20   7.91146958312346E-07   1.04884293733202E-13   0.00000000000000E+00   0.00000000000000E+00
      0.00000000000000E+00   0.00000000000000E+00  -7.91146958283666E-07  -2.86563119330977E-17  -7.91146958312323E-07
     -1.06493930576750E-13
      4.20000000000000E-02
      8.40000000000001E-02   8.40000000000001E-02   0.00000000000000E+00   0.00000000000000E+00   7.91317100135548E-07
     -2.04804192324610E-20   7.91317100135528E-07   1.05087394667843E-13   0.00000000000000E+00   0.00000000000000E+00
      0.00000000000000E+00   0.00000000000000E+00  -7.91317100145240E-07   9.68562647695868E-18  -7.91317100135554E-07
     -1.06697031512228E-13
      4.30000000000000E-02
      8.60000000000001E-02   8.60000000000001E-02   0.00000000000000E+00   0.00000000000000E+00   7.91486749148510E-07
     -2.25645902062075E-20   7.91486749148488E-07   1.05290218280987E-13   0.00000000000000E+00   0.00000000000000E+00
      0.00000000000000E+00   0.00000000000000E+00  -7.91486749144476E-07  -4.00439510175068E-18  -7.91486749148481E-07
     -1.06899855126202E-13
      4.40000000000000E-02
      8.80000000000001E-02   8.80000000000001E-02   0.00000000000000E+00   0.00000000000000E+00   7.91655919575763E-07
     -2.38302545706169E-20   7.91655919575739E-07   1.05492765801736E-13   0.00000000000000E+00   0.00000000000000E+00
      0.00000000000000E+00   0.00000000000000E+00  -7.91655919561841E-07  -1.38786742152089E-17  -7.91655919575720E-07
     -1.07102402647790E-13
      4.50000000000000E-02
      9.00000000000001E-02   9.00000000000001E-02   0.00000000000000E+00   0.00000000000000E+00   7.91824624716772E-07
     -2.53427872789722E-20   7.91824624716747E-07   1.05695038449918E-13   0.00000000000000E+00   0.00000000000000E+00
      0.00000000000000E+00   0.00000000000000E+00  -7.91824624719627E-07   2.89451404154785E-18  -7.91824624716732E-07
     -1.07304675296812E-13
      4.60000000000000E-02
      9.20000000000001E-02   9.20000000000001E-02   0.00000000000000E+00   0.00000000000000E+00   7.91992877011406E-07
     -2.64616942521486E-20   7.91992877011379E-07   1.05897037436192E-13   0.00000000000000E+00   0.00000000000000E+00
      0.00000000000000E+00   0.00000000000000E+00  -7.91992877030205E-07   1.87881888349554E-17  -7.91992877011417E-07
     -1.07506674283932E-13
      4.70000000000000E-02
      9.40000000000001E-02   9.40000000000001E-02   0.00000000000000E+00   0.00000000000000E+00   7.92160688103251E-07
     -2.78654752782242E-20   7.92160688103223E-07   1.06098763962131E-13   0.00000000000000E+00   0.00000000000000E+00
      0.00000000000000E+00   0.00000000000000E+00  -7.92160688106934E-07   3.70170311965118E-18  -7.92160688103233E-07
     -1.07708400810715E-13
      4.80000000000000E-02
      9.60000000000001E-02   9.60000000000001E-02   0.00000000000000E+00   0.00000000000000E+00   7.92328068900928E-07
     -2.88468731410320E-20   7.92328068900899E-07   1.06300219220327E-13   0.00000000000000E+00   0.00000000000000E+00
      0.00000000000000E+00   0.00000000000000E+00  -7.92328068896321E-07  -4.59510024353537E-18  -7.92328068900916E-07
     -1.07909856069766E-13
      4.90000000000000E-02
      9.80000000000001E-02   9.80000000000001E-02   0.00000000000000E+00   0.00000000000000E+00   7.92495029637091E-07
     -2.98755249936572E-20   7.92495029637061E-07   1.06501404394476E-13   0.00000000000000E+00   0.00000000000000E+00
      0.00000000000000E+00   0.00000000000000E+00  -7.92495029617787E-07  -1.92623023272005E-17  -7.92495029637049E-07
     -1.08111041244773E-13
      5.00000000000000E-02
      1.00000000000000E-01   1.00000000000000E-01   0.00000000000000E+00   0.00000000000000E+00   7.92661579924960E-07
     -3.10466138727319E-20   7.92661579924928E-07   1.06702320659468E-13   0.00000000000000E+00   0.00000000000000E+00
      0.00000000000000E+00   0.00000000000000E+00  -7.92661579923274E-07  -1.65209927505066E-18  -7.92661579924926E-07
     -1.08311957510625E-13
      5.10000000000000E-02
      1.02000000000000E-01   1.02000000000000E-01   0.00000000000000E+00   0.00000000000000E+00   7.92827728812430E-07
     -3.21462817214827E-20   7.92827728812398E-07   1.06902969181483E-13   0.00000000000000E+00   0.00000000000000E+00
      0.00000000000000E+00   0.00000000000000E+00  -7.92827728829361E-07   1.69572577930325E-17  -7.92827728812403E-07
     -1.08512606033503E-13
      5.20000000000000E-02
      1.04000000000000E-01   1.04000000000000E-01   0.00000000000000E+00   0.00000000000000E+00   7.92993484833381E-07
     -3.28947849201903E-20   7.92993484833349E-07   1.07103351118074E-13   0.00000000000000E+00   0.00000000000000E+00
      0.00000000000000E+00   0.00000000000000E+00  -7.92993484838663E-07   5.32025591046130E-18  -7.92993484833343E-07
     -1.08712987970961E-13
      5.30000000000000E-02
      1.06000000000000E-01   1.06000000000000E-01   0.00000000000000E+00   0.00000000000000E+00   7.93158856057791E-07
     -3.37169368373134E-20   7.93158856057758E-07   1.07303467618258E-13   0.00000000000000E+00   0.00000000000000E+00
      0.00000000000000E+00   0.00000000000000E+00  -7.93158856062553E-07   4.80291353644504E-18  -7.93158856057750E-07
     -1.08913104472016E-13
      5.40000000000000E-02
      1.08000000000000E-01   1.08000000000000E-01   0.00000000000000E+00   0.00000000000000E+00   7.93323850146433E-07
     -3.45781745545855E-20   7.93323850146398E-07   1.07503319822602E-13   0.00000000000000E+00   0.00000000000000E+00
      0.00000000000000E+00   0.00000000000000E+00  -7.93323850161898E-07   1.55031076919938E-17  -7.93323850146395E-07
     -1.09112956677235E-13
      5.50000000000000E-02
      1.10000000000000E-01   1.10000000000000E-01   0.00000000000000E+00   0.00000000000000E+00   7.93488474357600E-07
     -3.51774901568697E-20   7.93488474357565E-07   1.07702908863308E-13   0.00000000000000E+00   0.00000000000000E+00
      0.00000000000000E+00   0.00000000000000E+00  -7.93488474375729E-07   1.81942318804659E-17  -7.93488474357535E-07
     -1.09312545718813E-13
      5.60000000000000E-02
      1.12000000000000E-01   1.12000000000000E-01   0.00000000000000E+00   0.00000000000000E+00   7.93652735626044E-07
     -3.59407771038202E-20   7.93652735626008E-07   1.07902235864298E-13   0.00000000000000E+00   0.00000000000000E+00
      0.00000000000000E+00   0.00000000000000E+00  -7.93652735610696E-07  -1.53007056017048E-17  -7.93652735625997E-07
     -1.09511872720687E-13
      5.70000000000000E-02
      1.14000000000000E-01   1.14000000000000E-01   0.00000000000000E+00   0.00000000000000E+00   7.93816640586311E-07
     -3.66400686474181E-20   7.93816640586274E-07   1.08101301941301E-13   0.00000000000000E+00   0.00000000000000E+00
      0.00000000000000E+00   0.00000000000000E+00  -7.93816640584584E-07  -1.68629533239263E-18  -7.93816640586270E-07
     -1.09710938798574E-13
      5.80000000000000E-02
      1.16000000000000E-01   1.16000000000000E-01   0.00000000000000E+00   0.00000000000000E+00   7.93980195606459E-07
     -3.72646988871044E-20   7.93980195606422E-07   1.08300108201929E-13   0.00000000000000E+00   0.00000000000000E+00
      0.00000000000000E+00   0.00000000000000E+00  -7.93980195586179E-07  -2.02551726651247E-17  -7.93980195606434E-07
     -1.09909745060093E-13
      5.90000000000000E-02
      1.18000000000000E-01   1.18000000000000E-01   0.00000000000000E+00   0.00000000000000E+00   7.94143406818808E-07
     -3.76985580193280E-20   7.94143406818770E-07   1.08498655745764E-13   0.00000000000000E+00   0.00000000000000E+00
      0.00000000000000E+00   0.00000000000000E+00  -7.94143406816793E-07  -1.97076253381650E-18  -7.94143406818764E-07
     -1.10108292604814E-13
      6.00000000000000E-02
      1.20000000000000E-01   1.20000000000000E-01   0.00000000000000E+00   0.00000000000000E+00   7.94306280147670E-07
     -3.81912146160243E-20   7.94306280147632E-07   1.08696945664441E-13   0.00000000000000E+00   0.00000000000000E+00
      0.00000000000000E+00   0.00000000000000E+00  -7.94306280137906E-07  -9.70200914469661E-18  -7.94306280147608E-07
     -1.10306582524383E-13
      6.10000000000000E-02
      1.22000000000000E-01   1.22000000000000E-01   0.00000000000000E+00   0.00000000000000E+00   7.94468821334182E-07
     -3.84598873009861E-20   7.94468821334144E-07   1.08894979041718E-13   0.00000000000000E+00   0.00000000000000E+00
      0.00000000000000E+00   0.00000000000000E+00  -7.94468821334501E-07   3.43541456984333E-19  -7.94468821334157E-07
     -1.10504615902557E-13
      6.20000000000000E-02
      1.24000000000000E-01   1.24000000000000E-01   0.00000000000000E+00   0.00000000000000E+00   7.94631035958169E-07
     -3.89241239980922E-20   7.94631035958130E-07   1.09092756953571E-13   0.00000000000000E+00   0.00000000000000E+00
      0.00000000000000E+00   0.00000000000000E+00  -7.94631035941313E-07  -1.68318738811524E-17  -7.94631035958145E-07
     -1.10702393815306E-13
      6.30000000000000E-02
      1.26000000000000E-01   1.26000000000000E-01   0.00000000000000E+00   0.00000000000000E+00   7.94792929457261E-07
     -3.93432668877726E-20   7.94792929457221E-07   1.09290280468255E-13   0.00000000000000E+00   0.00000000000000E+00
      0.00000000000000E+00   0.00000000000000E+00  -7.94792929446582E-07  -1.06682679456625E-17  -7.94792929457250E-07
     -1.10899917330893E-13
      6.40000000000000E-02
      1.28000000000000E-01   1.28000000000000E-01   0.00000000000000E+00   0.00000000000000E+00   7.94954507143299E-07
     -3.96299635945648E-20   7.94954507143259E-07   1.09487550646394E-13   0.00000000000000E+00   0.00000000000000E+00
      0.00000000000000E+00   0.00000000000000E+00  -7.94954507145300E-07   2.04049214626568E-18  -7.94954507143260E-07
     -1.11097187509938E-13
      6.50000000000000E-02
      1.30000000000000E-01   1.30000000000000E-01   0.00000000000000E+00   0.00000000000000E+00   7.95115774216083E-07
     -3.96875459564422E-20   7.95115774216043E-07   1.09684568541054E-13   0.00000000000000E+00   0.00000000000000E+00
      0.00000000000000E+00   0.00000000000000E+00  -7.95115774217680E-07   1.63027632924628E-18  -7.95115774216050E-07
     -1.11294205405510E-13
      6.60000000000000E-02
      1.32000000000000E-01   1.32000000000000E-01   0.00000000000000E+00   0.00000000000000E+00   7.95276735774744E-07
     -3.98117564439623E-20   7.95276735774704E-07   1.09881335197815E-13   0.00000000000000E+00   0.00000000000000E+00
      0.00000000000000E+00   0.00000000000000E+00  -7.95276735761330E-07  -1.34036211640674E-17  -7.95276735774733E-07
     -1.11490972063183E-13
      6.70000000000000E-02
      1.34000000000000E-01   1.34000000000000E-01   0.00000000000000E+00   0.00000000000000E+00   7.95437396826735E-07
     -3.99583788237957E-20   7.95437396826695E-07   1.10077851654850E-13   0.00000000000000E+00   0.00000000000000E+00
      0.00000000000000E+00   0.00000000000000E+00  -7.95437396825132E-07  -1.59930208264105E-18  -7.95437396826731E-07
     -1.11687488521133E-13
      6.80000000000000E-02
      1.36000000000000E-01   1.36000000000000E-01   0.00000000000000E+00   0.00000000000000E+00   7.95597762294653E-07
     -3.98266752036046E-20   7.95597762294613E-07   1.10274118942998E-13   0.00000000000000E+00   0.00000000000000E+00
      0.00000000000000E+00   0.00000000000000E+00  -7.95597762317350E-07   2.27083904424004E-17  -7.95597762294641E-07
     -1.11883755810196E-13
      6.90000000000000E-02