DF-ISE text

Info {
  version   = 1.0
  type      = xyplot
  datasets  = [
    "time"
    "ntype OuterVoltage" "ntype InnerVoltage" "ntype QuasiFermiPotential" "ntype DisplacementCurrent" "ntype eCurrent"
    "ntype hCurrent" "ntype TotalCurrent" "ntype Charge" "ptype OuterVoltage" "ptype InnerVoltage"
    "ptype QuasiFermiPotential" "ptype DisplacementCurrent" "ptype eCurrent" "ptype hCurrent" "ptype TotalCurrent"
    "ptype Charge" ]
  functions = [
    Time
    OuterVoltage InnerVoltage QuasiFermiPotential DisplacementCurrent eCurrent
    hCurrent TotalCurrent Charge OuterVoltage InnerVoltage
    QuasiFermiPotential DisplacementCurrent eCurrent hCurrent TotalCurrent
    Charge ]
}

Data {
      0.00000000000000E+00
      0.00000000000000E+00   0.00000000000000E+00   0.00000000000000E+00   0.00000000000000E+00   1.88125265056514E-07
     -1.88125265056707E-07  -1.93103024354625E-19   3.99145422400016E-14   0.00000000000000E+00   0.00000000000000E+00
      0.00000000000000E+00   0.00000000000000E+00   8.00469575373164E-07  -8.00469575372987E-07   1.77791651562590E-19
     -4.19979509963833E-14
      0.00000000000000E+00
      0.00000000000000E+00   0.00000000000000E+00   0.00000000000000E+00   0.00000000000000E+00   7.49308866314418E-07
     -1.86900504169473E-07   5.62408362144945E-07   3.99141306702026E-14   0.00000000000000E+00   0.00000000000000E+00
      0.00000000000000E+00   0.00000000000000E+00   1.29349420635361E-07  -6.91757783263888E-07  -5.62408362628527E-07
     -4.19975394287319E-14
      0.00000000000000E+00
      0.00000000000000E+00   0.00000000000000E+00   0.00000000000000E+00   0.00000000000000E+00   7.40459763148900E-07
      1.51547831956350E-19   7.40459763149052E-07   3.98925758669970E-14   0.00000000000000E+00   0.00000000000000E+00
      0.00000000000000E+00   0.00000000000000E+00  -7.40459763143632E-07  -5.44780974893680E-18  -7.40459763149080E-07
     -4.19759730899602E-14
      1.00000000000000E-03
      2.00000000000000E-03   2.00000000000000E-03   0.00000000000000E+00   0.00000000000000E+00   7.40562198279099E-07
      4.02758581296689E-20   7.40562198279139E-07   4.00156351961289E-14   0.00000000000000E+00   0.00000000000000E+00
      0.00000000000000E+00   0.00000000000000E+00  -7.40562198327153E-07   4.80020579215656E-17  -7.40562198279151E-07
     -4.20990324189862E-14
      2.00000000000000E-03
      4.00000000000000E-03   4.00000000000000E-03   0.00000000000000E+00   0.00000000000000E+00   7.40662016686507E-07
     -1.67380483761770E-19   7.40662016686340E-07   4.01386569549551E-14   0.00000000000000E+00   0.00000000000000E+00
      0.00000000000000E+00   0.00000000000000E+00  -7.40662016671492E-07  -1.48524461993928E-17  -7.40662016686344E-07
     -4.22220541777156E-14
      3.00000000000000E-03
      6.00000000000000E-03   6.00000000000000E-03   0.00000000000000E+00   0.00000000000000E+00   7.40759356755120E-07
     -3.95235206072161E-19   7.40759356754725E-07   4.02616409966226E-14   0.00000000000000E+00   0.00000000000000E+00
      0.00000000000000E+00   0.00000000000000E+00  -7.40759356768750E-07   1.40267923619468E-17  -7.40759356754723E-07
     -4.23450382192939E-14
      4.00000000000000E-03
      8.00000000000000E-03   8.00000000000000E-03   0.00000000000000E+00   0.00000000000000E+00   7.40854348360919E-07
      1.72249534872556E-19   7.40854348361091E-07   4.03845871807311E-14   0.00000000000000E+00   0.00000000000000E+00
      0.00000000000000E+00   0.00000000000000E+00  -7.40854348375200E-07   1.41010594092378E-17  -7.40854348361099E-07
     -4.24679844033213E-14
      5.00000000000000E-03
      1.00000000000000E-02   1.00000000000000E-02   0.00000000000000E+00   0.00000000000000E+00   7.40947113414651E-07
      3.15840098719303E-19   7.40947113414967E-07   4.05074953731797E-14   0.00000000000000E+00   0.00000000000000E+00
      0.00000000000000E+00   0.00000000000000E+00  -7.40947113412382E-07  -2.57703277142447E-18  -7.40947113414959E-07
     -4.25908925956939E-14
      6.00000000000000E-03
      1.20000000000000E-02   1.20000000000000E-02   0.00000000000000E+00   0.00000000000000E+00   7.41037766369233E-07
      8.37755522089306E-20   7.41037766369316E-07   4.06303654460255E-14   0.00000000000000E+00   0.00000000000000E+00
      0.00000000000000E+00   0.00000000000000E+00  -7.41037766387177E-07   1.78312024538885E-17  -7.41037766369346E-07
     -4.27137626684716E-14
      7.00000000000000E-03
      1.40000000000000E-02   1.40000000000000E-02   0.00000000000000E+00   0.00000000000000E+00   7.41126414694146E-07
      5.84946676566191E-20   7.41126414694204E-07   4.07531972773385E-14   0.00000000000000E+00   0.00000000000000E+00
      0.00000000000000E+00   0.00000000000000E+00  -7.41126414671696E-07  -2.24864197629136E-17  -7.41126414694183E-07
     -4.28365944997202E-14
      8.00000000000000E-03
      1.60000000000000E-02   1.60000000000000E-02   0.00000000000000E+00   0.00000000000000E+00   7.41213159318991E-07
     -2.87564121280965E-19   7.41213159318704E-07   4.08759907510629E-14   0.00000000000000E+00   0.00000000000000E+00
      0.00000000000000E+00   0.00000000000000E+00  -7.41213159352119E-07   3.33884761387408E-17  -7.41213159318731E-07
     -4.29593879733896E-14
      9.00000000000000E-03
      1.80000000000000E-02   1.80000000000000E-02   0.00000000000000E+00   0.00000000000000E+00   7.41298095048217E-07
      1.12902270228231E-19   7.41298095048330E-07   4.09987457568795E-14   0.00000000000000E+00   0.00000000000000E+00
      0.00000000000000E+00   0.00000000000000E+00  -7.41298095044079E-07  -4.26729508921623E-18  -7.41298095048346E-07
     -4.30821429791546E-14
      1.00000000000000E-02
      2.00000000000000E-02   2.00000000000000E-02   0.00000000000000E+00   0.00000000000000E+00   7.41381310948998E-07
     -1.58349132463619E-20   7.41381310948982E-07   4.11214621900725E-14   0.00000000000000E+00   0.00000000000000E+00
      0.00000000000000E+00   0.00000000000000E+00  -7.41381310960698E-07   1.16868294362088E-17  -7.41381310949011E-07
     -4.32048594123018E-14
      1.10000000000000E-02
      2.20000000000000E-02   2.20000000000000E-02   0.00000000000000E+00   0.00000000000000E+00   7.41462890713923E-07
      1.19952903037487E-19   7.41462890714042E-07   4.12441399513981E-14   0.00000000000000E+00   0.00000000000000E+00
      0.00000000000000E+00   0.00000000000000E+00  -7.41462890762371E-07   4.83300930215059E-17  -7.41462890714041E-07
     -4.33275371735822E-14
      1.20000000000000E-02
      2.40000000000000E-02   2.40000000000000E-02   0.00000000000000E+00   0.00000000000000E+00   7.41542913000312E-07
     -1.33619634466777E-19   7.41542913000178E-07   4.13667789469558E-14   0.00000000000000E+00   0.00000000000000E+00
      0.00000000000000E+00   0.00000000000000E+00  -7.41542913028514E-07   2.83310706204511E-17  -7.41542913000183E-07
     -4.34501761691041E-14
      1.30000000000000E-02
      2.60000000000000E-02   2.60000000000000E-02   0.00000000000000E+00   0.00000000000000E+00   7.41621451747594E-07
      2.11570592385114E-19   7.41621451747806E-07   4.14893790880627E-14   0.00000000000000E+00   0.00000000000000E+00
      0.00000000000000E+00   0.00000000000000E+00  -7.41621451689441E-07  -5.83726676483011E-17  -7.41621451747814E-07
     -4.35727763101776E-14
      1.40000000000000E-02
      2.80000000000000E-02   2.80000000000000E-02   0.00000000000000E+00   0.00000000000000E+00   7.41698576474175E-07
     -2.95164588014596E-19   7.41698576473879E-07   4.16119402911304E-14   0.00000000000000E+00   0.00000000000000E+00
      0.00000000000000E+00   0.00000000000000E+00  -7.41698576466879E-07  -6.98845890555198E-18  -7.41698576473868E-07
     -4.36953375132203E-14
      1.50000000000000E-02
      3.00000000000000E-02   3.00000000000000E-02   0.00000000000000E+00   0.00000000000000E+00   7.41774352555293E-07
      4.43836710914908E-19   7.41774352555737E-07   4.17344624775441E-14   0.00000000000000E+00   0.00000000000000E+00
      0.00000000000000E+00   0.00000000000000E+00  -7.41774352535791E-07  -1.99245994267784E-17  -7.41774352555716E-07
     -4.38178596996077E-14
      1.60000000000000E-02
      3.20000000000000E-02   3.20000000000000E-02   0.00000000000000E+00   0.00000000000000E+00   7.41848841482927E-07
     -7.44380288096119E-20   7.41848841482853E-07   4.18569455735444E-14   0.00000000000000E+00   0.00000000000000E+00
      0.00000000000000E+00   0.00000000000000E+00  -7.41848841461462E-07  -2.14233128773447E-17  -7.41848841482885E-07
     -4.39403427955879E-14
      1.70000000000000E-02
      3.40000000000000E-02   3.40000000000000E-02   0.00000000000000E+00   0.00000000000000E+00   7.41922101109095E-07
     -7.53350783005956E-20   7.41922101109019E-07   4.19793895101116E-14   0.00000000000000E+00   0.00000000000000E+00
      0.00000000000000E+00   0.00000000000000E+00  -7.41922101105010E-07  -4.01345711718132E-18  -7.41922101109024E-07
     -4.40627867321387E-14
      1.80000000000000E-02
      3.60000000000000E-02   3.60000000000000E-02   0.00000000000000E+00   0.00000000000000E+00   7.41994185873530E-07
     -1.71024340175140E-20   7.41994185873513E-07   4.21017942228518E-14   0.00000000000000E+00   0.00000000000000E+00
      0.00000000000000E+00   0.00000000000000E+00  -7.41994185853796E-07  -1.97205104275280E-17  -7.41994185873516E-07
     -4.41851914448630E-14
      1.90000000000000E-02
      3.80000000000000E-02   3.80000000000000E-02   0.00000000000000E+00   0.00000000000000E+00   7.42065147016826E-07
      1.38617891486863E-19   7.42065147016965E-07   4.22241596518861E-14   0.00000000000000E+00   0.00000000000000E+00
      0.00000000000000E+00   0.00000000000000E+00  -7.42065147021246E-07   4.30055187111620E-18  -7.42065147016945E-07
     -4.43075568738867E-14
      2.00000000000000E-02
      4.00000000000000E-02   4.00000000000000E-02   0.00000000000000E+00   0.00000000000000E+00   7.42135032779939E-07
     -2.33166813328564E-19   7.42135032779705E-07   4.23464857417415E-14   0.00000000000000E+00   0.00000000000000E+00
      0.00000000000000E+00   0.00000000000000E+00  -7.42135032764621E-07  -1.50798669664826E-17  -7.42135032779701E-07
     -4.44298829637377E-14
      2.10000000000000E-02
      4.20000000000000E-02   4.20000000000000E-02   0.00000000000000E+00   0.00000000000000E+00   7.42203888591015E-07
      2.04075367037377E-19   7.42203888591219E-07   4.24687724412443E-14   0.00000000000000E+00   0.00000000000000E+00
      0.00000000000000E+00   0.00000000000000E+00  -7.42203888593382E-07   2.15465712264785E-18  -7.42203888591227E-07
     -4.45521696632326E-14
      2.20000000000000E-02
      4.40000000000000E-02   4.40000000000000E-02   0.00000000000000E+00   0.00000000000000E+00   7.42271757240302E-07
     -2.50356228440192E-19   7.42271757240051E-07   4.25910197034153E-14   0.00000000000000E+00   0.00000000000000E+00
      0.00000000000000E+00   0.00000000000000E+00  -7.42271757268051E-07   2.80009059931786E-17  -7.42271757240050E-07
     -4.46744169254094E-14
      2.30000000000000E-02
      4.60000000000000E-02   4.60000000000000E-02   0.00000000000000E+00   0.00000000000000E+00   7.42338679043961E-07
      3.03848554981890E-20   7.42338679043992E-07   4.27132274853673E-14   0.00000000000000E+00   0.00000000000000E+00
      0.00000000000000E+00   0.00000000000000E+00  -7.42338679068759E-07   2.47660214358726E-17  -7.42338679043993E-07
     -4.47966247073605E-14
      2.40000000000000E-02
      4.80000000000000E-02   4.80000000000000E-02   0.00000000000000E+00   0.00000000000000E+00   7.42404691997476E-07
      1.67389563278385E-19   7.42404691997644E-07   4.28353957482057E-14   0.00000000000000E+00   0.00000000000000E+00
      0.00000000000000E+00   0.00000000000000E+00  -7.42404692010543E-07   1.28895374062316E-17  -7.42404691997654E-07
     -4.49187929702022E-14
      2.50000000000000E-02
      5.00000000000000E-02   5.00000000000000E-02   0.00000000000000E+00   0.00000000000000E+00   7.42469831919367E-07
     -2.61951885001484E-19   7.42469831919105E-07   4.29575244569283E-14   0.00000000000000E+00   0.00000000000000E+00
      0.00000000000000E+00   0.00000000000000E+00  -7.42469831903225E-07  -1.58930552899958E-17  -7.42469831919118E-07
     -4.50409216789299E-14
      2.60000000000000E-02
      5.20000000000000E-02   5.20000000000000E-02   0.00000000000000E+00   0.00000000000000E+00   7.42534132585788E-07
     -1.17931512364498E-19   7.42534132585670E-07   4.30796135803310E-14   0.00000000000000E+00   0.00000000000000E+00
      0.00000000000000E+00   0.00000000000000E+00  -7.42534132590170E-07   4.50814507891932E-18  -7.42534132585662E-07
     -4.51630108023392E-14
      2.70000000000000E-02
      5.40000000000000E-02   5.40000000000000E-02   0.00000000000000E+00   0.00000000000000E+00   7.42597625856654E-07
     -2.76369921116021E-19   7.42597625856377E-07   4.32016630909119E-14   0.00000000000000E+00   0.00000000000000E+00
      0.00000000000000E+00   0.00000000000000E+00  -7.42597625866705E-07   1.03100472435446E-17  -7.42597625856395E-07
     -4.52850603129360E-14
      2.80000000000000E-02
      5.60000000000000E-02   5.60000000000000E-02   0.00000000000000E+00   0.00000000000000E+00   7.42660341793800E-07
      3.83588987741763E-20   7.42660341793838E-07   4.33236729647799E-14   0.00000000000000E+00   0.00000000000000E+00
      0.00000000000000E+00   0.00000000000000E+00  -7.42660341786591E-07  -7.24916263749900E-18  -7.42660341793841E-07
     -4.54070701868173E-14
      2.90000000000000E-02
      5.80000000000000E-02   5.80000000000000E-02   0.00000000000000E+00   0.00000000000000E+00   7.42722308771690E-07
     -3.25969700246511E-19   7.42722308771364E-07   4.34456431815628E-14   0.00000000000000E+00   0.00000000000000E+00
      0.00000000000000E+00   0.00000000000000E+00  -7.42722308764311E-07  -7.02571918041804E-18  -7.42722308771336E-07
     -4.55290404036188E-14
      3.00000000000000E-02
      6.00000000000000E-02   6.00000000000000E-02   0.00000000000000E+00   0.00000000000000E+00   7.42783553581219E-07
      5.03850729355556E-20   7.42783553581270E-07   4.35675737243204E-14   0.00000000000000E+00   0.00000000000000E+00
      0.00000000000000E+00   0.00000000000000E+00  -7.42783553597708E-07   1.64290488760684E-17  -7.42783553581279E-07
     -4.56509709463958E-14
      3.10000000000000E-02
      6.20000000000000E-02   6.20000000000000E-02   0.00000000000000E+00   0.00000000000000E+00   7.42844101526907E-07
     -4.47611730902871E-20   7.42844101526862E-07   4.36894645794559E-14   0.00000000000000E+00   0.00000000000000E+00
      0.00000000000000E+00   0.00000000000000E+00  -7.42844101540153E-07   1.32998950329058E-17  -7.42844101526853E-07
     -4.57728618015521E-14
      3.20000000000000E-02
      6.40000000000000E-02   6.40000000000000E-02   0.00000000000000E+00   0.00000000000000E+00   7.42903976518087E-07
     -1.43750889883628E-19   7.42903976517943E-07   4.38113157366314E-14   0.00000000000000E+00   0.00000000000000E+00
      0.00000000000000E+00   0.00000000000000E+00  -7.42903976520338E-07   2.37211324027287E-18  -7.42903976517965E-07
     -4.58947129587489E-14
      3.30000000000000E-02
      6.60000000000000E-02   6.60000000000000E-02   0.00000000000000E+00   0.00000000000000E+00   7.42963201154319E-07
      3.53604981088625E-20   7.42963201154354E-07   4.39331271886848E-14   0.00000000000000E+00   0.00000000000000E+00
      0.00000000000000E+00   0.00000000000000E+00  -7.42963201154233E-07  -1.18006988709172E-19  -7.42963201154351E-07
     -4.60165244108307E-14
      3.40000000000000E-02
      6.80000000000000E-02   6.80000000000000E-02   0.00000000000000E+00   0.00000000000000E+00   7.43021796805517E-07
      1.51530449238667E-19   7.43021796805669E-07   4.40548989315472E-14   0.00000000000000E+00   0.00000000000000E+00
      0.00000000000000E+00   0.00000000000000E+00  -7.43021796790340E-07  -1.53075173582333E-17  -7.43021796805648E-07
     -4.61382961537143E-14
      3.50000000000000E-02
      7.00000000000000E-02   7.00000000000000E-02   0.00000000000000E+00   0.00000000000000E+00   7.43079783686988E-07
      3.19947989312680E-19   7.43079783687308E-07   4.41766309641636E-14   0.00000000000000E+00   0.00000000000000E+00
      0.00000000000000E+00   0.00000000000000E+00  -7.43079783688579E-07   1.27704602886923E-18  -7.43079783687302E-07
     -4.62600281863647E-14
      3.60000000000000E-02
      7.20000000000001E-02   7.20000000000001E-02   0.00000000000000E+00   0.00000000000000E+00   7.43137180929897E-07
     -4.09299883601413E-20   7.43137180929856E-07   4.42983232884145E-14   0.00000000000000E+00   0.00000000000000E+00
      0.00000000000000E+00   0.00000000000000E+00  -7.43137180910143E-07  -1.96889907733713E-17  -7.43137180929832E-07
     -4.63817205106447E-14
      3.70000000000000E-02
      7.40000000000001E-02   7.40000000000001E-02   0.00000000000000E+00   0.00000000000000E+00   7.43194006647228E-07
      1.41423900907920E-19   7.43194006647369E-07   4.44199759090388E-14   0.00000000000000E+00   0.00000000000000E+00
      0.00000000000000E+00   0.00000000000000E+00  -7.43194006681867E-07   3.45041716832864E-17  -7.43194006647363E-07
     -4.65033731313023E-14
      3.80000000000000E-02
      7.60000000000001E-02   7.60000000000001E-02   0.00000000000000E+00   0.00000000000000E+00   7.43250277995718E-07
      3.48500875131348E-20   7.43250277995752E-07   4.45415888335584E-14   0.00000000000000E+00   0.00000000000000E+00
      0.00000000000000E+00   0.00000000000000E+00  -7.43250277991067E-07  -4.67072723880583E-18  -7.43250277995738E-07
     -4.66249860558530E-14
      3.90000000000000E-02
      7.80000000000001E-02   7.80000000000001E-02   0.00000000000000E+00   0.00000000000000E+00   7.43306011233898E-07
      3.49889332363583E-19   7.43306011234248E-07   4.46631620722052E-14   0.00000000000000E+00   0.00000000000000E+00
      0.00000000000000E+00   0.00000000000000E+00  -7.43306011247717E-07   1.34622561334693E-17  -7.43306011234255E-07
     -4.67465592945383E-14
      4.00000000000000E-02
      8.00000000000001E-02   8.00000000000001E-02   0.00000000000000E+00   0.00000000000000E+00   7.43361221776530E-07
     -2.60532948945817E-19   7.43361221776269E-07   4.47846956378479E-14   0.00000000000000E+00   0.00000000000000E+00
      0.00000000000000E+00   0.00000000000000E+00  -7.43361221754855E-07  -2.14296378992870E-17  -7.43361221776285E-07
     -4.68680928602184E-14
      4.10000000000000E-02
      8.20000000000001E-02   8.20000000000001E-02   0.00000000000000E+00   0.00000000000000E+00   7.43415924245687E-07
      1.49564176969515E-19   7.43415924245836E-07   4.49061895459233E-14   0.00000000000000E+00   0.00000000000000E+00
      0.00000000000000E+00   0.00000000000000E+00  -7.43415924255239E-07   9.41345049599268E-18  -7.43415924245826E-07
     -4.69895867683315E-14
      4.20000000000000E-02
      8.40000000000001E-02   8.40000000000001E-02   0.00000000000000E+00   0.00000000000000E+00   7.43470132518598E-07
     -1.83739713778006E-20   7.43470132518579E-07   4.50276438143648E-14   0.00000000000000E+00   0.00000000000000E+00
      0.00000000000000E+00   0.00000000000000E+00  -7.43470132496841E-07  -2.17395477538475E-17  -7.43470132518580E-07
     -4.71110410368126E-14
      4.30000000000000E-02
      8.60000000000001E-02   8.60000000000001E-02   0.00000000000000E+00   0.00000000000000E+00   7.43523859772624E-07
     -2.73869813773332E-19   7.43523859772350E-07   4.51490584635361E-14   0.00000000000000E+00   0.00000000000000E+00
      0.00000000000000E+00   0.00000000000000E+00  -7.43523859786670E-07   1.43120699853507E-17  -7.43523859772358E-07
     -4.72324556860265E-14
      4.40000000000000E-02
      8.80000000000001E-02   8.80000000000001E-02   0.00000000000000E+00   0.00000000000000E+00   7.43577118527359E-07
      8.07085657526818E-20   7.43577118527440E-07   4.52704335161649E-14   0.00000000000000E+00   0.00000000000000E+00
      0.00000000000000E+00   0.00000000000000E+00  -7.43577118538371E-07   1.09249995314700E-17  -7.43577118527446E-07
     -4.73538307387004E-14
      4.50000000000000E-02
      9.00000000000001E-02   9.00000000000001E-02   0.00000000000000E+00   0.00000000000000E+00   7.43629920684163E-07
      5.38573062331935E-19   7.43629920684702E-07   4.53917689972771E-14   0.00000000000000E+00   0.00000000000000E+00
      0.00000000000000E+00   0.00000000000000E+00  -7.43629920694189E-07   9.50774876530890E-18  -7.43629920684681E-07
     -4.74751662198557E-14
      4.60000000000000E-02
      9.20000000000001E-02   9.20000000000001E-02   0.00000000000000E+00   0.00000000000000E+00   7.43682277563236E-07
      5.84183187102141E-20   7.43682277563295E-07   4.55130649341342E-14   0.00000000000000E+00   0.00000000000000E+00
      0.00000000000000E+00   0.00000000000000E+00  -7.43682277554150E-07  -9.14679871914033E-18  -7.43682277563296E-07
     -4.75964621567604E-14
      4.70000000000000E-02
      9.40000000000001E-02   9.40000000000001E-02   0.00000000000000E+00   0.00000000000000E+00   7.43734199938417E-07
     -2.39976349531201E-20   7.43734199938393E-07   4.56343213561705E-14   0.00000000000000E+00   0.00000000000000E+00
      0.00000000000000E+00   0.00000000000000E+00  -7.43734199943685E-07   5.29108461442370E-18  -7.43734199938394E-07
     -4.77177185788470E-14
      4.80000000000000E-02
      9.60000000000001E-02   9.60000000000001E-02   0.00000000000000E+00   0.00000000000000E+00   7.43785698069786E-07
     -2.64585214842609E-21   7.43785698069784E-07   4.57555382949327E-14   0.00000000000000E+00   0.00000000000000E+00
      0.00000000000000E+00   0.00000000000000E+00  -7.43785698068997E-07  -7.81599170598233E-19  -7.43785698069778E-07
     -4.78389355176576E-14
      4.90000000000000E-02
      9.80000000000001E-02   9.80000000000001E-02   0.00000000000000E+00   0.00000000000000E+00   7.43836781734304E-07
     -3.88144474877260E-19   7.43836781733915E-07   4.58767157840196E-14   0.00000000000000E+00   0.00000000000000E+00
      0.00000000000000E+00   0.00000000000000E+00  -7.43836781779973E-07   4.60658091703599E-17  -7.43836781733908E-07
     -4.79601130067928E-14
      5.00000000000000E-02
      1.00000000000000E-01   1.00000000000000E-01   0.00000000000000E+00   0.00000000000000E+00   7.43887460254507E-07
     -1.32605563845295E-19   7.43887460254374E-07   4.59978538590245E-14   0.00000000000000E+00   0.00000000000000E+00
      0.00000000000000E+00   0.00000000000000E+00  -7.43887460248768E-07  -5.62050592315317E-18  -7.43887460254388E-07
     -4.80812510818494E-14
      5.10000000000000E-02
      1.02000000000000E-01   1.02000000000000E-01   0.00000000000000E+00   0.00000000000000E+00   7.43937742525459E-07
      3.59802004324679E-21   7.43937742525463E-07   4.61189525574766E-14   0.00000000000000E+00   0.00000000000000E+00
      0.00000000000000E+00   0.00000000000000E+00  -7.43937742509733E-07  -1.57267413819878E-17  -7.43937742525460E-07
     -4.82023497803542E-14
      5.20000000000000E-02
      1.04000000000000E-01   1.04000000000000E-01   0.00000000000000E+00   0.00000000000000E+00   7.43987637040024E-07
      3.28673776060962E-19   7.43987637040352E-07   4.62400119187884E-14   0.00000000000000E+00   0.00000000000000E+00
      0.00000000000000E+00   0.00000000000000E+00  -7.43987637012895E-07  -2.74437765936668E-17  -7.43987637040339E-07
     -4.83234091417200E-14
      5.30000000000000E-02
      1.06000000000000E-01   1.06000000000000E-01   0.00000000000000E+00   0.00000000000000E+00   7.44037151912564E-07
     -1.43839288597437E-19   7.44037151912420E-07   4.63610319841969E-14   0.00000000000000E+00   0.00000000000000E+00
      0.00000000000000E+00   0.00000000000000E+00  -7.44037151897910E-07  -1.45144995722367E-17  -7.44037151912424E-07
     -4.84444292071852E-14
      5.40000000000000E-02
      1.08000000000000E-01   1.08000000000000E-01   0.00000000000000E+00   0.00000000000000E+00   7.44086294901199E-07
      1.32924697040812E-19   7.44086294901332E-07   4.64820127967128E-14   0.00000000000000E+00   0.00000000000000E+00
      0.00000000000000E+00   0.00000000000000E+00  -7.44086294890818E-07  -1.04958029148078E-17  -7.44086294901314E-07
     -4.85654100197560E-14
      5.50000000000000E-02
      1.10000000000000E-01   1.10000000000000E-01   0.00000000000000E+00   0.00000000000000E+00   7.44135073428651E-07
     -1.04505911294676E-20   7.44135073428641E-07   4.66029544010674E-14   0.00000000000000E+00   0.00000000000000E+00
      0.00000000000000E+00   0.00000000000000E+00  -7.44135073470563E-07   4.18909636097917E-17  -7.44135073428672E-07
     -4.86863516241672E-14
      5.60000000000000E-02
      1.12000000000000E-01   1.12000000000000E-01   0.00000000000000E+00   0.00000000000000E+00   7.44183494601826E-07
      7.61531123700346E-20   7.44183494601902E-07   4.67238568436618E-14   0.00000000000000E+00   0.00000000000000E+00
      0.00000000000000E+00   0.00000000000000E+00  -7.44183494618506E-07   1.65962307899478E-17  -7.44183494601910E-07
     -4.88072540668208E-14
      5.70000000000000E-02
      1.14000000000000E-01   1.14000000000000E-01   0.00000000000000E+00   0.00000000000000E+00   7.44231565230172E-07
      1.51150594666235E-19   7.44231565230323E-07   4.68447201725149E-14   0.00000000000000E+00   0.00000000000000E+00
      0.00000000000000E+00   0.00000000000000E+00  -7.44231565283107E-07   5.27765270344688E-17  -7.44231565230330E-07
     -4.89281173957336E-14
      5.80000000000000E-02
      1.16000000000000E-01   1.16000000000000E-01   0.00000000000000E+00   0.00000000000000E+00   7.44279291842870E-07
     -2.81513247884847E-19   7.44279291842588E-07   4.69655444372178E-14   0.00000000000000E+00   0.00000000000000E+00
      0.00000000000000E+00   0.00000000000000E+00  -7.44279291833607E-07  -8.98206813056600E-18  -7.44279291842589E-07
     -4.90489416604949E-14
      5.90000000000000E-02
      1.18000000000000E-01   1.18000000000000E-01   0.00000000000000E+00   0.00000000000000E+00   7.44326680705029E-07
      2.38705217205113E-20   7.44326680705053E-07   4.70863296888824E-14   0.00000000000000E+00   0.00000000000000E+00
      0.00000000000000E+00   0.00000000000000E+00  -7.44326680673634E-07  -3.14177715764032E-17  -7.44326680705052E-07
     -4.91697269122253E-14
      6.00000000000000E-02
      1.20000000000000E-01   1.20000000000000E-01   0.00000000000000E+00   0.00000000000000E+00   7.44373737832784E-07
     -1.87346948349267E-19   7.44373737832597E-07   4.72070759800967E-14   0.00000000000000E+00   0.00000000000000E+00
      0.00000000000000E+00   0.00000000000000E+00  -7.44373737831253E-07  -1.36276975959921E-18  -7.44373737832616E-07
     -4.92904732034998E-14
      6.10000000000000E-02
      1.22000000000000E-01   1.22000000000000E-01   0.00000000000000E+00   0.00000000000000E+00   7.44420469007524E-07
     -2.14795238403104E-19   7.44420469007310E-07   4.73277833648778E-14   0.00000000000000E+00   0.00000000000000E+00
      0.00000000000000E+00   0.00000000000000E+00  -7.44420469030298E-07   2.29816158203239E-17  -7.44420469007316E-07
     -4.94111805883473E-14
      6.20000000000000E-02
      1.24000000000000E-01   1.24000000000000E-01   0.00000000000000E+00   0.00000000000000E+00   7.44466879789217E-07
     -4.90801540067480E-20   7.44466879789168E-07   4.74484518986282E-14   0.00000000000000E+00   0.00000000000000E+00
      0.00000000000000E+00   0.00000000000000E+00  -7.44466879791911E-07   2.71009677133442E-18  -7.44466879789201E-07
     -4.95318491221625E-14
      6.30000000000000E-02
      1.26000000000000E-01   1.26000000000000E-01   0.00000000000000E+00   0.00000000000000E+00   7.44512975528880E-07
     -6.83419603475179E-20   7.44512975528812E-07   4.75690816380904E-14   0.00000000000000E+00   0.00000000000000E+00
      0.00000000000000E+00   0.00000000000000E+00  -7.44512975516530E-07  -1.22609472895102E-17  -7.44512975528791E-07
     -4.96524788616901E-14
      6.40000000000000E-02
      1.28000000000000E-01   1.28000000000000E-01   0.00000000000000E+00   0.00000000000000E+00   7.44558761380306E-07
      2.16448689259665E-19   7.44558761380523E-07   4.76896726413049E-14   0.00000000000000E+00   0.00000000000000E+00
      0.00000000000000E+00   0.00000000000000E+00  -7.44558761348067E-07  -3.24401936015218E-17  -7.44558761380507E-07
     -4.97730698649749E-14
      6.50000000000000E-02
      1.30000000000000E-01   1.30000000000000E-01   0.00000000000000E+00   0.00000000000000E+00   7.44604242311049E-07
     -2.23079706639341E-19   7.44604242310826E-07   4.78102249675685E-14   0.00000000000000E+00   0.00000000000000E+00
      0.00000000000000E+00   0.00000000000000E+00  -7.44604242284475E-07  -2.63412859829991E-17  -7.44604242310817E-07
     -4.98936221913096E-14
      6.60000000000000E-02
      1.32000000000000E-01   1.32000000000000E-01   0.00000000000000E+00   0.00000000000000E+00   7.44649423112706E-07
     -1.69184809857248E-20   7.44649423112689E-07   4.79307386773926E-14   0.00000000000000E+00   0.00000000000000E+00
      0.00000000000000E+00   0.00000000000000E+00  -7.44649423125677E-07   1.29944015472161E-17  -7.44649423112682E-07
     -5.00141359011986E-14
      6.70000000000000E-02
      1.34000000000000E-01   1.34000000000000E-01   0.00000000000000E+00   0.00000000000000E+00   7.44694308410616E-07
      1.23206340236415E-20   7.44694308410628E-07   4.80512138324642E-14   0.00000000000000E+00   0.00000000000000E+00
      0.00000000000000E+00   0.00000000000000E+00  -7.44694308403963E-07  -6.67871131928338E-18  -7.44694308410641E-07
     -5.01346110563394E-14
      6.80000000000000E-02
      1.36000000000000E-01   1.36000000000000E-01   0.00000000000000E+00   0.00000000000000E+00   7.44738902672876E-07
      1.40562494426399E-19   7.44738902673017E-07   4.81716504956051E-14   0.00000000000000E+00   0.00000000000000E+00
      0.00000000000000E+00   0.00000000000000E+00  -7.44738902664062E-07  -8.93102949812422E-18  -7.44738902672993E-07
     -5.02550477195559E-14
      6.90000000000000E-02