DF-ISE text

Info {
  version   = 1.0
  type      = xyplot
  datasets  = [
    "time"
    "ntype OuterVoltage" "ntype InnerVoltage" "ntype QuasiFermiPotential" "ntype DisplacementCurrent" "ntype eCurrent"
    "ntype hCurrent" "ntype TotalCurrent" "ntype Charge" "ptype OuterVoltage" "ptype InnerVoltage"
    "ptype QuasiFermiPotential" "ptype DisplacementCurrent" "ptype eCurrent" "ptype hCurrent" "ptype TotalCurrent"
    "ptype Charge" ]
  functions = [
    Time
    OuterVoltage InnerVoltage QuasiFermiPotential DisplacementCurrent eCurrent
    hCurrent TotalCurrent Charge OuterVoltage InnerVoltage
    QuasiFermiPotential DisplacementCurrent eCurrent hCurrent TotalCurrent
    Charge ]
}

Data {
      0.00000000000000E+00
      0.00000000000000E+00   0.00000000000000E+00   0.00000000000000E+00   0.00000000000000E+00   3.38544597645427E-07
     -3.38544597645601E-07  -1.74127982226347E-19   3.58771115132398E-14   0.00000000000000E+00   0.00000000000000E+00
      0.00000000000000E+00   0.00000000000000E+00   8.10001266606711E-07  -8.10001266606529E-07   1.81800950081498E-19
     -3.74867594382623E-14
      0.00000000000000E+00
      0.00000000000000E+00   0.00000000000000E+00   0.00000000000000E+00   0.00000000000000E+00   9.10849203760896E-07
     -3.38499225386068E-07   5.72349978374828E-07   3.58764238728125E-14   0.00000000000000E+00   0.00000000000000E+00
      0.00000000000000E+00   0.00000000000000E+00   1.29045800959542E-07  -7.01395779519538E-07  -5.72349978559996E-07
     -3.74860718000527E-14
      0.00000000000000E+00
      0.00000000000000E+00   0.00000000000000E+00   0.00000000000000E+00   0.00000000000000E+00   8.81248420811329E-07
      1.22051655242377E-20   8.81248420811342E-07   3.58600253516389E-14   0.00000000000000E+00   0.00000000000000E+00
      0.00000000000000E+00   0.00000000000000E+00  -8.81248420803182E-07  -8.14733174500461E-18  -8.81248420811329E-07
     -3.74696612517742E-14
      1.00000000000000E-03
      1.50000000000000E-02   1.50000000000000E-02   0.00000000000000E+00   0.00000000000000E+00   8.82909679429375E-07
     -1.44724794613765E-20   8.82909679429361E-07   3.64621752084109E-14   0.00000000000000E+00   0.00000000000000E+00
      0.00000000000000E+00   0.00000000000000E+00  -8.82909679416389E-07  -1.29722494622810E-17  -8.82909679429362E-07
     -3.80718111027959E-14
      2.00000000000000E-03
      3.00000000000000E-02   3.00000000000000E-02   0.00000000000000E+00   0.00000000000000E+00   8.84428036847330E-07
     -7.04765526785136E-18   8.84428036840282E-07   3.70612956474861E-14   0.00000000000000E+00   0.00000000000000E+00
      0.00000000000000E+00   0.00000000000000E+00  -8.84428036840300E-07   8.26326836369311E-21  -8.84428036840292E-07
     -3.86709315366526E-14
      3.00000000000000E-03
      4.50000000000000E-02   4.50000000000000E-02   0.00000000000000E+00   0.00000000000000E+00   8.85826337044288E-07
     -4.11061066804187E-18   8.85826337040177E-07   3.76579416581970E-14   0.00000000000000E+00   0.00000000000000E+00
      0.00000000000000E+00   0.00000000000000E+00  -8.85826337027943E-07  -1.22276462391579E-17  -8.85826337040171E-07
     -3.92675775425931E-14
      4.00000000000000E-03
      6.00000000000000E-02   6.00000000000000E-02   0.00000000000000E+00   0.00000000000000E+00   8.87121150917012E-07
     -2.49172826521484E-18   8.87121150914521E-07   3.82525010717954E-14   0.00000000000000E+00   0.00000000000000E+00
      0.00000000000000E+00   0.00000000000000E+00  -8.87121150916678E-07   2.12991793369168E-18  -8.87121150914548E-07
     -3.98621369518147E-14
      5.00000000000000E-03
      7.50000000000000E-02   7.50000000000000E-02   0.00000000000000E+00   0.00000000000000E+00   8.88325465465057E-07
     -1.52429908683131E-18   8.88325465463532E-07   3.88452511207901E-14   0.00000000000000E+00   0.00000000000000E+00
      0.00000000000000E+00   0.00000000000000E+00  -8.88325465462396E-07  -1.12908099346331E-18  -8.88325465463525E-07
     -4.04548869967719E-14
      6.00000000000000E-03
      9.00000000000000E-02   9.00000000000000E-02   0.00000000000000E+00   0.00000000000000E+00   8.89449994982035E-07
     -1.01887891746252E-18   8.89449994981016E-07   3.94363956450967E-14   0.00000000000000E+00   0.00000000000000E+00
      0.00000000000000E+00   0.00000000000000E+00  -8.89449994973473E-07  -7.58899648519815E-18  -8.89449994981062E-07
     -4.10460315173503E-14
      7.00000000000000E-03
      1.05000000000000E-01   1.05000000000000E-01   0.00000000000000E+00   0.00000000000000E+00   8.90503699962767E-07
     -7.23024319938042E-19   8.90503699962044E-07   4.00260890966087E-14   0.00000000000000E+00   0.00000000000000E+00
      0.00000000000000E+00   0.00000000000000E+00  -8.90503699978887E-07   1.68468955917063E-17  -8.90503699962040E-07
     -4.16357249654061E-14
      8.00000000000000E-03
      1.20000000000000E-01   1.20000000000000E-01   0.00000000000000E+00   0.00000000000000E+00   8.91494048530034E-07
     -5.74702011573778E-19   8.91494048529459E-07   4.06144519795996E-14   0.00000000000000E+00   0.00000000000000E+00
      0.00000000000000E+00   0.00000000000000E+00  -8.91494048520031E-07  -9.43040864464031E-18  -8.91494048529462E-07
     -4.22240878451874E-14
      9.00000000000000E-03
      1.35000000000000E-01   1.35000000000000E-01   0.00000000000000E+00   0.00000000000000E+00   8.92427248621534E-07
     -4.75557672975184E-19   8.92427248621059E-07   4.12015808610667E-14   0.00000000000000E+00   0.00000000000000E+00
      0.00000000000000E+00   0.00000000000000E+00  -8.92427248590747E-07  -3.02952082336128E-17  -8.92427248621042E-07
     -4.28112167236673E-14
      1.00000000000000E-02
      1.50000000000000E-01   1.50000000000000E-01   0.00000000000000E+00   0.00000000000000E+00   8.93308489356014E-07
     -4.28271280421905E-19   8.93308489355586E-07   4.17875549625717E-14   0.00000000000000E+00   0.00000000000000E+00
      0.00000000000000E+00   0.00000000000000E+00  -8.93308489360202E-07   4.59242186142142E-18  -8.93308489355609E-07
     -4.33971908223861E-14
      1.10000000000000E-02
      1.65000000000000E-01   1.65000000000000E-01   0.00000000000000E+00   0.00000000000000E+00   8.94142162829292E-07
     -4.20338550634158E-19   8.94142162828872E-07   4.23724405931722E-14   0.00000000000000E+00   0.00000000000000E+00
      0.00000000000000E+00   0.00000000000000E+00  -8.94142162843463E-07   1.45971494951545E-17  -8.94142162828866E-07
     -4.39820764503899E-14
      1.20000000000000E-02
      1.80000000000000E-01   1.80000000000000E-01   0.00000000000000E+00   0.00000000000000E+00   8.94932046131291E-07
     -3.65757492167066E-19   8.94932046130925E-07   4.29562942042938E-14   0.00000000000000E+00   0.00000000000000E+00
      0.00000000000000E+00   0.00000000000000E+00  -8.94932046118829E-07  -1.21077717577514E-17  -8.94932046130937E-07
     -4.45659300590904E-14
      1.30000000000000E-02
      1.95000000000000E-01   1.95000000000000E-01   0.00000000000000E+00   0.00000000000000E+00   8.95681440085466E-07
     -3.27488240962144E-19   8.95681440085138E-07   4.35391645504763E-14   0.00000000000000E+00   0.00000000000000E+00
      0.00000000000000E+00   0.00000000000000E+00  -8.95681440072800E-07  -1.23359332633774E-17  -8.95681440085136E-07
     -4.51488004030083E-14
      1.40000000000000E-02
      2.10000000000000E-01   2.10000000000000E-01   0.00000000000000E+00   0.00000000000000E+00   8.96393270629626E-07
     -3.11228818122972E-19   8.96393270629314E-07   4.41210942578754E-14   0.00000000000000E+00   0.00000000000000E+00
      0.00000000000000E+00   0.00000000000000E+00  -8.96393270646953E-07   1.76357814402858E-17  -8.96393270629317E-07
     -4.57307301082927E-14
      1.50000000000000E-02
      2.25000000000000E-01   2.25000000000000E-01   0.00000000000000E+00   0.00000000000000E+00   8.97070161762413E-07
     -2.62192407809655E-19   8.97070161762151E-07   4.47021209911012E-14   0.00000000000000E+00   0.00000000000000E+00
      0.00000000000000E+00   0.00000000000000E+00  -8.97070161760826E-07  -1.32851662438854E-18  -8.97070161762154E-07
     -4.63117568395458E-14
      1.60000000000000E-02
      2.40000000000000E-01   2.40000000000000E-01   0.00000000000000E+00   0.00000000000000E+00   8.97714488066654E-07
     -2.52604708287103E-19   8.97714488066401E-07   4.52822783406860E-14   0.00000000000000E+00   0.00000000000000E+00
      0.00000000000000E+00   0.00000000000000E+00  -8.97714488072780E-07   6.36601554875147E-18  -8.97714488066415E-07
     -4.68919141872878E-14
      1.70000000000000E-02
      2.55000000000000E-01   2.55000000000000E-01   0.00000000000000E+00   0.00000000000000E+00   8.98328413099398E-07
     -2.00791248497917E-19   8.98328413099197E-07   4.58615965112241E-14   0.00000000000000E+00   0.00000000000000E+00
      0.00000000000000E+00   0.00000000000000E+00  -8.98328413076495E-07  -2.26858561644364E-17  -8.98328413099181E-07
     -4.74712323561097E-14
      1.80000000000000E-02
      2.70000000000000E-01   2.70000000000000E-01   0.00000000000000E+00   0.00000000000000E+00   8.98913918096995E-07
     -2.05320340904816E-19   8.98913918096789E-07   4.64401028637715E-14   0.00000000000000E+00   0.00000000000000E+00
      0.00000000000000E+00   0.00000000000000E+00  -8.98913918079532E-07  -1.72447137999867E-17  -8.98913918096777E-07
     -4.80497387070528E-14
      1.90000000000000E-02
      2.85000000000000E-01   2.85000000000000E-01   0.00000000000000E+00   0.00000000000000E+00   8.99472824058393E-07
     -1.87339387710897E-19   8.99472824058206E-07   4.70178223492826E-14   0.00000000000000E+00   0.00000000000000E+00
      0.00000000000000E+00   0.00000000000000E+00  -8.99472824044000E-07  -1.41970425760636E-17  -8.99472824058197E-07
     -4.86274581910639E-14
      2.00000000000000E-02
      3.00000000000000E-01   3.00000000000000E-01   0.00000000000000E+00   0.00000000000000E+00   9.00006809318491E-07
     -1.30777306979260E-19   9.00006809318360E-07   4.75947778589403E-14   0.00000000000000E+00   0.00000000000000E+00
      0.00000000000000E+00   0.00000000000000E+00  -9.00006809289208E-07  -2.91334380170604E-17  -9.00006809318341E-07
     -4.92044136993321E-14
      2.10000000000000E-02
      3.15000000000000E-01   3.15000000000000E-01   0.00000000000000E+00   0.00000000000000E+00   9.00517425663697E-07
     -1.12132907768304E-19   9.00517425663585E-07   4.81709905099933E-14   0.00000000000000E+00   0.00000000000000E+00
      0.00000000000000E+00   0.00000000000000E+00  -9.00517425661611E-07  -1.97909215638595E-18  -9.00517425663590E-07
     -4.97806263490857E-14
      2.20000000000000E-02
      3.30000000000000E-01   3.30000000000000E-01   0.00000000000000E+00   0.00000000000000E+00   9.01006106134303E-07
     -1.44606592133522E-19   9.01006106134159E-07   4.87464798809957E-14   0.00000000000000E+00   0.00000000000000E+00
      0.00000000000000E+00   0.00000000000000E+00  -9.01006106153834E-07   1.97029097718183E-17  -9.01006106134131E-07
     -5.03561157188826E-14
      2.30000000000000E-02
      3.45000000000000E-01   3.45000000000000E-01   0.00000000000000E+00   0.00000000000000E+00   9.01474179016224E-07
     -1.07746387399254E-19   9.01474179016116E-07   4.93212642065407E-14   0.00000000000000E+00   0.00000000000000E+00
      0.00000000000000E+00   0.00000000000000E+00  -9.01474179008241E-07  -7.87902177533964E-18  -9.01474179016120E-07
     -5.09309000433071E-14
      2.40000000000000E-02
      3.60000000000000E-01   3.60000000000000E-01   0.00000000000000E+00   0.00000000000000E+00   9.01922877148844E-07
     -6.60474416133842E-20   9.01922877148778E-07   4.98953605396308E-14   0.00000000000000E+00   0.00000000000000E+00
      0.00000000000000E+00   0.00000000000000E+00  -9.01922877156571E-07   7.77591701912059E-18  -9.01922877148795E-07
     -5.15049963753538E-14
      2.50000000000000E-02
      3.75000000000000E-01   3.75000000000000E-01   0.00000000000000E+00   0.00000000000000E+00   9.02353345618342E-07
     -6.93210630165346E-20   9.02353345618273E-07   5.04687848877968E-14   0.00000000000000E+00   0.00000000000000E+00
      0.00000000000000E+00   0.00000000000000E+00  -9.02353345629223E-07   1.09369835283793E-17  -9.02353345618286E-07
     -5.20784207225583E-14
      2.60000000000000E-02
      3.90000000000000E-01   3.90000000000000E-01   0.00000000000000E+00   0.00000000000000E+00   9.02766649050211E-07
     -6.64599014387904E-20   9.02766649050144E-07   5.10415523278227E-14   0.00000000000000E+00   0.00000000000000E+00
      0.00000000000000E+00   0.00000000000000E+00  -9.02766649041111E-07  -9.04987339782073E-18  -9.02766649050161E-07
     -5.26511881616957E-14
      2.70000000000000E-02
      4.05000000000000E-01   4.05000000000000E-01   0.00000000000000E+00   0.00000000000000E+00   9.03163778094781E-07
     -1.01976675242549E-19   9.03163778094679E-07   5.16136771029410E-14   0.00000000000000E+00   0.00000000000000E+00
      0.00000000000000E+00   0.00000000000000E+00  -9.03163778088483E-07  -6.19621290249481E-18  -9.03163778094680E-07
     -5.32233129359927E-14
      2.80000000000000E-02
      4.20000000000000E-01   4.20000000000000E-01   0.00000000000000E+00   0.00000000000000E+00   9.03545655225391E-07
     -5.36186297059108E-20   9.03545655225338E-07   5.21851727056127E-14   0.00000000000000E+00   0.00000000000000E+00
      0.00000000000000E+00   0.00000000000000E+00  -9.03545655206900E-07  -1.84434699971614E-17  -9.03545655225343E-07
     -5.37948085379059E-14
      2.90000000000000E-02
      4.35000000000000E-01   4.35000000000000E-01   0.00000000000000E+00   0.00000000000000E+00   9.03913139962294E-07
     -5.04806947592361E-20   9.03913139962244E-07   5.27560519483900E-14   0.00000000000000E+00   0.00000000000000E+00
      0.00000000000000E+00   0.00000000000000E+00  -9.03913139955208E-07  -7.03767873043894E-18  -9.03913139962245E-07
     -5.43656877799863E-14
      3.00000000000000E-02
      4.50000000000000E-01   4.50000000000000E-01   0.00000000000000E+00   0.00000000000000E+00   9.04267033629502E-07
     -6.60774141440684E-20   9.04267033629436E-07   5.33263270249014E-14   0.00000000000000E+00   0.00000000000000E+00
      0.00000000000000E+00   0.00000000000000E+00  -9.04267033638452E-07   8.99890789649745E-18  -9.04267033629453E-07
     -5.49359628558626E-14
      3.10000000000000E-02
      4.65000000000000E-01   4.65000000000000E-01   0.00000000000000E+00   0.00000000000000E+00   9.04608083738853E-07
     -1.76513228620930E-20   9.04608083738835E-07   5.38960095626143E-14   0.00000000000000E+00   0.00000000000000E+00
      0.00000000000000E+00   0.00000000000000E+00  -9.04608083735214E-07  -3.65950878283320E-18  -9.04608083738874E-07
     -5.55056453929956E-14
      3.20000000000000E-02
      4.80000000000000E-01   4.80000000000000E-01   0.00000000000000E+00   0.00000000000000E+00   9.04936988071811E-07
     -8.72936455036862E-21   9.04936988071802E-07   5.44651106687289E-14   0.00000000000000E+00   0.00000000000000E+00
      0.00000000000000E+00   0.00000000000000E+00  -9.04936988038483E-07  -3.33408241422380E-17  -9.04936988071824E-07
     -5.60747464985819E-14
      3.30000000000000E-02
      4.95000000000000E-01   4.95000000000000E-01   0.00000000000000E+00   0.00000000000000E+00   9.05254398497869E-07
     -4.80249049084256E-20   9.05254398497821E-07   5.50336409703259E-14   0.00000000000000E+00   0.00000000000000E+00
      0.00000000000000E+00   0.00000000000000E+00  -9.05254398518191E-07   2.03772787421213E-17  -9.05254398497814E-07
     -5.66432767997019E-14
      3.40000000000000E-02
      5.10000000000000E-01   5.10000000000000E-01   0.00000000000000E+00   0.00000000000000E+00   9.05560924537892E-07
     -4.16602650199194E-20   9.05560924537850E-07   5.56016106496713E-14   0.00000000000000E+00   0.00000000000000E+00
      0.00000000000000E+00   0.00000000000000E+00  -9.05560924530712E-07  -7.14257305779990E-18  -9.05560924537855E-07
     -5.72112464786182E-14
      3.50000000000000E-02
      5.25000000000000E-01   5.25000000000000E-01   0.00000000000000E+00   0.00000000000000E+00   9.05857136659338E-07
      2.74363415449825E-21   9.05857136659340E-07   5.61690294754469E-14   0.00000000000000E+00   0.00000000000000E+00
      0.00000000000000E+00   0.00000000000000E+00  -9.05857136680915E-07   2.15930269543004E-17  -9.05857136659322E-07
     -5.77786653040126E-14
      3.60000000000000E-02
      5.40000000000000E-01   5.40000000000000E-01   0.00000000000000E+00   0.00000000000000E+00   9.06143569283379E-07
     -1.11894747659624E-20   9.06143569283368E-07   5.67359068305251E-14   0.00000000000000E+00   0.00000000000000E+00
      0.00000000000000E+00   0.00000000000000E+00  -9.06143569289391E-07   6.04878311845628E-18  -9.06143569283342E-07
     -5.83455426587519E-14
      3.70000000000000E-02
      5.55000000000000E-01   5.55000000000000E-01   0.00000000000000E+00   0.00000000000000E+00   9.06420723491516E-07
     -2.90933364507796E-20   9.06420723491487E-07   5.73022517368051E-14   0.00000000000000E+00   0.00000000000000E+00
      0.00000000000000E+00   0.00000000000000E+00  -9.06420723487872E-07  -3.59150814437599E-18  -9.06420723491464E-07
     -5.89118875647353E-14
      3.80000000000000E-02
      5.70000000000000E-01   5.70000000000000E-01   0.00000000000000E+00   0.00000000000000E+00   9.06689069437456E-07
      3.50187167510832E-20   9.06689069437491E-07   5.78680728775425E-14   0.00000000000000E+00   0.00000000000000E+00
      0.00000000000000E+00   0.00000000000000E+00  -9.06689069455743E-07   1.81957677752151E-17  -9.06689069437548E-07
     -5.94777087052202E-14
      3.90000000000000E-02
      5.85000000000000E-01   5.85000000000000E-01   0.00000000000000E+00   0.00000000000000E+00   9.06949048492704E-07
      2.97045330562179E-21   9.06949048492707E-07   5.84333786175275E-14   0.00000000000000E+00   0.00000000000000E+00
      0.00000000000000E+00   0.00000000000000E+00  -9.06949048514334E-07   2.16432638260653E-17  -9.06949048492691E-07
     -6.00430144449865E-14
      4.00000000000000E-02
      6.00000000000000E-01   6.00000000000000E-01   0.00000000000000E+00   0.00000000000000E+00   9.07201075174556E-07
      7.68613146659981E-21   9.07201075174563E-07   5.89981770214063E-14   0.00000000000000E+00   0.00000000000000E+00
      0.00000000000000E+00   0.00000000000000E+00  -9.07201075182730E-07   8.17221893114401E-18  -9.07201075174558E-07
     -6.06078128486901E-14
      4.10000000000000E-02
      6.15000000000000E-01   6.15000000000000E-01   0.00000000000000E+00   0.00000000000000E+00   9.07445538916448E-07
     -3.75206129948156E-20   9.07445538916411E-07   5.95624758703960E-14   0.00000000000000E+00   0.00000000000000E+00
      0.00000000000000E+00   0.00000000000000E+00  -9.07445538930438E-07   1.40043363835158E-17  -9.07445538916434E-07
     -6.11721116975332E-14
      4.20000000000000E-02
      6.30000000000000E-01   6.30000000000000E-01   0.00000000000000E+00   0.00000000000000E+00   9.07682805739068E-07
      2.10235700925622E-20   9.07682805739089E-07   6.01262826775934E-14   0.00000000000000E+00   0.00000000000000E+00
      0.00000000000000E+00   0.00000000000000E+00  -9.07682805773785E-07   3.46709180463175E-17  -9.07682805739114E-07
     -6.17359185046248E-14
      4.30000000000000E-02
      6.45000000000000E-01   6.45000000000000E-01   0.00000000000000E+00   0.00000000000000E+00   9.07913219865915E-07
     -2.61629815308029E-20   9.07913219865888E-07   6.06896047020628E-14   0.00000000000000E+00   0.00000000000000E+00
      0.00000000000000E+00   0.00000000000000E+00  -9.07913219845945E-07  -1.99337231562443E-17  -9.07913219865878E-07
     -6.22992405290153E-14
      4.40000000000000E-02
      6.60000000000000E-01   6.60000000000000E-01   0.00000000000000E+00   0.00000000000000E+00   9.08137105302973E-07
     -2.12813743598660E-20   9.08137105302951E-07   6.12524489618373E-14   0.00000000000000E+00   0.00000000000000E+00
      0.00000000000000E+00   0.00000000000000E+00  -9.08137105307600E-07   4.63728155843051E-18  -9.08137105302963E-07
     -6.28620847887467E-14
      4.50000000000000E-02
      6.75000000000000E-01   6.75000000000000E-01   0.00000000000000E+00   0.00000000000000E+00   9.08354767375437E-07
     -2.56825434657594E-21   9.08354767375435E-07   6.18148222459627E-14   0.00000000000000E+00   0.00000000000000E+00
      0.00000000000000E+00   0.00000000000000E+00  -9.08354767360340E-07  -1.51077054038136E-17  -9.08354767375447E-07
     -6.34244580728638E-14
      4.60000000000000E-02
      6.90000000000001E-01   6.90000000000001E-01   0.00000000000000E+00   0.00000000000000E+00   9.08566494192370E-07
      2.05136320367327E-20   9.08566494192390E-07   6.23767311256927E-14   0.00000000000000E+00   0.00000000000000E+00
      0.00000000000000E+00   0.00000000000000E+00  -9.08566494194855E-07   2.45225642223757E-18  -9.08566494192403E-07
     -6.39863669526123E-14
      4.70000000000000E-02
      7.05000000000001E-01   7.05000000000001E-01   0.00000000000000E+00   0.00000000000000E+00   9.08772557999028E-07
     -2.33083680059335E-20   9.08772557999004E-07   6.29381819649223E-14   0.00000000000000E+00   0.00000000000000E+00
      0.00000000000000E+00   0.00000000000000E+00  -9.08772557975158E-07  -2.38575303889389E-17  -9.08772557999016E-07
     -6.45478177918844E-14
      4.80000000000000E-02
      7.20000000000001E-01   7.20000000000001E-01   0.00000000000000E+00   0.00000000000000E+00   9.08973216377133E-07
      2.57671956132323E-20   9.08973216377159E-07   6.34991809299346E-14   0.00000000000000E+00   0.00000000000000E+00
      0.00000000000000E+00   0.00000000000000E+00  -9.08973216356311E-07  -2.08605774394206E-17  -9.08973216377171E-07
     -6.51088167569731E-14
      4.90000000000000E-02
      7.35000000000001E-01   7.35000000000001E-01   0.00000000000000E+00   0.00000000000000E+00   9.09168713267130E-07
      1.37245163082667E-20   9.09168713267144E-07   6.40597339985349E-14   0.00000000000000E+00   0.00000000000000E+00
      0.00000000000000E+00   0.00000000000000E+00  -9.09168713266509E-07  -6.54609721899388E-19  -9.09168713267163E-07
     -6.56693698256757E-14
      5.00000000000000E-02
      7.50000000000001E-01   7.50000000000001E-01   0.00000000000000E+00   0.00000000000000E+00   9.09359279807445E-07
      2.51472907725277E-20   9.09359279807470E-07   6.46198469686190E-14   0.00000000000000E+00   0.00000000000000E+00
      0.00000000000000E+00   0.00000000000000E+00  -9.09359279801309E-07  -6.13915943590983E-18  -9.09359279807449E-07
     -6.62294827958841E-14
      5.10000000000000E-02
      7.65000000000001E-01   7.65000000000001E-01   0.00000000000000E+00   0.00000000000000E+00   9.09545135009778E-07
      2.75386801857870E-20   9.09545135009805E-07   6.51795254662350E-14   0.00000000000000E+00   0.00000000000000E+00
      0.00000000000000E+00   0.00000000000000E+00  -9.09545135015801E-07   5.98256679587258E-18  -9.09545135009819E-07
     -6.67891612936561E-14
      5.20000000000000E-02
      7.80000000000001E-01   7.80000000000001E-01   0.00000000000000E+00   0.00000000000000E+00   9.09726486309432E-07
      4.49814104356861E-20   9.09726486309477E-07   6.57387749531693E-14   0.00000000000000E+00   0.00000000000000E+00
      0.00000000000000E+00   0.00000000000000E+00  -9.09726486298535E-07  -1.09402454084560E-17  -9.09726486309475E-07
     -6.73484107807708E-14
      5.30000000000000E-02
      7.95000000000001E-01   7.95000000000001E-01   0.00000000000000E+00   0.00000000000000E+00   9.09903530042114E-07
      3.44153508068147E-20   9.09903530042148E-07   6.62976007341071E-14   0.00000000000000E+00   0.00000000000000E+00
      0.00000000000000E+00   0.00000000000000E+00  -9.09903530034679E-07  -7.44391089452135E-18  -9.09903530042123E-07
     -6.79072365619116E-14
      5.40000000000000E-02
      8.10000000000001E-01   8.10000000000001E-01   0.00000000000000E+00   0.00000000000000E+00   9.10076451900979E-07
      8.98298346428860E-22   9.10076451900980E-07   6.68560079633868E-14   0.00000000000000E+00   0.00000000000000E+00
      0.00000000000000E+00   0.00000000000000E+00  -9.10076451874209E-07  -2.67736867584230E-17  -9.10076451900983E-07
     -6.84656437914176E-14
      5.50000000000000E-02
      8.25000000000001E-01   8.25000000000001E-01   0.00000000000000E+00   0.00000000000000E+00   9.10245427421355E-07
      1.71030415688117E-20   9.10245427421372E-07   6.74140016513819E-14   0.00000000000000E+00   0.00000000000000E+00
      0.00000000000000E+00   0.00000000000000E+00  -9.10245427411439E-07  -9.94775519122572E-18  -9.10245427421386E-07
     -6.90236374796594E-14
      5.60000000000000E-02
      8.40000000000001E-01   8.40000000000001E-01   0.00000000000000E+00   0.00000000000000E+00   9.10410622525915E-07
      5.80713731664048E-20   9.10410622525974E-07   6.79715866705434E-14   0.00000000000000E+00   0.00000000000000E+00
      0.00000000000000E+00   0.00000000000000E+00  -9.10410622521105E-07  -4.83256012546136E-18  -9.10410622525938E-07
     -6.95812224990898E-14
      5.70000000000000E-02
      8.55000000000001E-01   8.55000000000001E-01   0.00000000000000E+00   0.00000000000000E+00   9.10572194144524E-07
      2.92238249683754E-20   9.10572194144554E-07   6.85287677611115E-14   0.00000000000000E+00   0.00000000000000E+00
      0.00000000000000E+00   0.00000000000000E+00  -9.10572194121946E-07  -2.26449824069493E-17  -9.10572194144591E-07
     -7.01384035899509E-14
      5.80000000000000E-02
      8.70000000000001E-01   8.70000000000001E-01   0.00000000000000E+00   0.00000000000000E+00   9.10730290903365E-07
      5.44646111350418E-20   9.10730290903419E-07   6.90855495365290E-14   0.00000000000000E+00   0.00000000000000E+00
      0.00000000000000E+00   0.00000000000000E+00  -9.10730290896659E-07  -6.75134882271746E-18  -9.10730290903411E-07
     -7.06951853656811E-14
      5.90000000000000E-02
      8.85000000000001E-01   8.85000000000001E-01   0.00000000000000E+00   0.00000000000000E+00   9.10885053860025E-07
      2.92579828524434E-20   9.10885053860054E-07   6.96419364885778E-14   0.00000000000000E+00   0.00000000000000E+00
      0.00000000000000E+00   0.00000000000000E+00  -9.10885053856632E-07  -3.42175289651337E-18  -9.10885053860054E-07
     -7.12515723180665E-14
      6.00000000000000E-02
      9.00000000000001E-01   9.00000000000001E-01   0.00000000000000E+00   0.00000000000000E+00   9.11036617248544E-07
      4.95537739961179E-20   9.11036617248594E-07   7.01979329922419E-14   0.00000000000000E+00   0.00000000000000E+00
      0.00000000000000E+00   0.00000000000000E+00  -9.11036617264493E-07   1.59439425193136E-17  -9.11036617248549E-07
     -7.18075688220858E-14
      6.10000000000000E-02
      9.15000000000001E-01   9.15000000000001E-01   0.00000000000000E+00   0.00000000000000E+00   9.11185109191836E-07
      4.06149392594587E-20   9.11185109191877E-07   7.07535433103351E-14   0.00000000000000E+00   0.00000000000000E+00
      0.00000000000000E+00   0.00000000000000E+00  -9.11185109190891E-07  -9.83046631392715E-19  -9.11185109191874E-07
     -7.23631791405505E-14
      6.20000000000000E-02
      9.30000000000001E-01   9.30000000000001E-01   0.00000000000000E+00   0.00000000000000E+00   9.11330652339158E-07
      5.89924209336457E-20   9.11330652339217E-07   7.13087715978886E-14   0.00000000000000E+00   0.00000000000000E+00
      0.00000000000000E+00   0.00000000000000E+00  -9.11330652354848E-07   1.55923440429600E-17  -9.11330652339256E-07
     -7.29184074284984E-14
      6.30000000000000E-02
      9.45000000000001E-01   9.45000000000001E-01   0.00000000000000E+00   0.00000000000000E+00   9.11473364393115E-07
      4.01895183397026E-20   9.11473364393155E-07   7.18636219063275E-14   0.00000000000000E+00   0.00000000000000E+00
      0.00000000000000E+00   0.00000000000000E+00  -9.11473364363643E-07  -2.95040810599813E-17  -9.11473364393147E-07
     -7.34732577373496E-14
      6.40000000000000E-02
      9.60000000000001E-01   9.60000000000001E-01   0.00000000000000E+00   0.00000000000000E+00   9.11613358502920E-07
      5.49842025059340E-20   9.11613358502975E-07   7.24180981874435E-14   0.00000000000000E+00   0.00000000000000E+00
      0.00000000000000E+00   0.00000000000000E+00  -9.11613358496711E-07  -6.23484169479730E-18  -9.11613358502945E-07
     -7.40277340189002E-14
      6.50000000000000E-02
      9.75000000000001E-01   9.75000000000001E-01   0.00000000000000E+00   0.00000000000000E+00   9.11750743515057E-07
      5.73187521200130E-20   9.11750743515114E-07   7.29722042971737E-14   0.00000000000000E+00   0.00000000000000E+00
      0.00000000000000E+00   0.00000000000000E+00  -9.11750743501654E-07  -1.34538992111967E-17  -9.11750743515108E-07
     -7.45818401290775E-14
      6.60000000000000E-02
      9.90000000000001E-01   9.90000000000001E-01   0.00000000000000E+00   0.00000000000000E+00   9.11885624088694E-07
      3.33258088130248E-20   9.11885624088727E-07   7.35259439992015E-14   0.00000000000000E+00   0.00000000000000E+00
      0.00000000000000E+00   0.00000000000000E+00  -9.11885624102649E-07   1.39293781925019E-17  -9.11885624088719E-07
     -7.51355798315743E-14
      6.70000000000000E-02
      1.00500000000000E+00   1.00500000000000E+00   0.00000000000000E+00   0.00000000000000E+00   9.12018100697655E-07
      3.31262619645959E-20   9.12018100697688E-07   7.40793209683829E-14   0.00000000000000E+00   0.00000000000000E+00
      0.00000000000000E+00   0.00000000000000E+00  -9.12018100699304E-07   1.61795553043350E-18  -9.12018100697686E-07
     -7.56889568012424E-14
      6.80000000000000E-02
      1.02000000000000E+00   1.02000000000000E+00   0.00000000000000E+00   0.00000000000000E+00   9.12148269552344E-07
      2.65949505034337E-20   9.12148269552370E-07   7.46323387940144E-14   0.00000000000000E+00   0.00000000000000E+00
      0.00000000000000E+00   0.00000000000000E+00  -9.12148269556388E-07   4.05600465273737E-18  -9.12148269552332E-07
     -7.62419746273794E-14
      6.90000000000000E-02