DF-ISE text

Info {
  version   = 1.0
  type      = xyplot
  datasets  = [
    "time"
    "ntype OuterVoltage" "ntype InnerVoltage" "ntype QuasiFermiPotential" "ntype DisplacementCurrent" "ntype eCurrent"
    "ntype hCurrent" "ntype TotalCurrent" "ntype Charge" "ptype OuterVoltage" "ptype InnerVoltage"
    "ptype QuasiFermiPotential" "ptype DisplacementCurrent" "ptype eCurrent" "ptype hCurrent" "ptype TotalCurrent"
    "ptype Charge" ]
  functions = [
    Time
    OuterVoltage InnerVoltage QuasiFermiPotential DisplacementCurrent eCurrent
    hCurrent TotalCurrent Charge OuterVoltage InnerVoltage
    QuasiFermiPotential DisplacementCurrent eCurrent hCurrent TotalCurrent
    Charge ]
}

Data {
      0.00000000000000E+00
      0.00000000000000E+00   0.00000000000000E+00   0.00000000000000E+00   0.00000000000000E+00   1.88125265056483E-08
     -1.88125265058441E-08  -1.95798931979408E-19   3.99145422400016E-14   0.00000000000000E+00   0.00000000000000E+00
      0.00000000000000E+00   0.00000000000000E+00   8.00469564625239E-08  -8.00469564623308E-08   1.93085742895492E-19
     -4.19979509963833E-14
      0.00000000000000E+00
      0.00000000000000E+00   0.00000000000000E+00   0.00000000000000E+00   0.00000000000000E+00   7.49301634990410E-08
     -1.86893353719381E-08   5.62408281271029E-08   3.99145010668057E-14   0.00000000000000E+00   0.00000000000000E+00
      0.00000000000000E+00   0.00000000000000E+00   1.29349193522843E-08  -6.91757475277475E-08  -5.62408281754632E-08
     -4.19979098233910E-14
      0.00000000000000E+00
      0.00000000000000E+00   0.00000000000000E+00   0.00000000000000E+00   0.00000000000000E+00   7.40447679744349E-08
      1.82270604111008E-19   7.40447679746172E-08   3.99123456174530E-14   0.00000000000000E+00   0.00000000000000E+00
      0.00000000000000E+00   0.00000000000000E+00  -7.40447680028299E-08   2.82061311397983E-17  -7.40447679746238E-08
     -4.19957532393925E-14
      1.00000000000000E-03
      1.50000000000000E-02   1.50000000000000E-02   0.00000000000000E+00   0.00000000000000E+00   7.43610774200571E-08
     -4.09159609584156E-17   7.43610773791411E-08   4.08343342510615E-14   0.00000000000000E+00   0.00000000000000E+00
      0.00000000000000E+00   0.00000000000000E+00  -7.43610773522546E-08  -2.68743685859666E-17  -7.43610773791290E-08
     -4.29177418731792E-14
      2.00000000000000E-03
      3.00000000000000E-02   3.00000000000000E-02   0.00000000000000E+00   0.00000000000000E+00   7.45953565995076E-08
     -6.60485419140989E-18   7.45953565929028E-08   4.17541619999559E-14   0.00000000000000E+00   0.00000000000000E+00
      0.00000000000000E+00   0.00000000000000E+00  -7.45953566088504E-08   1.59719438857534E-17  -7.45953565928784E-08
     -4.38375696222534E-14
      3.00000000000000E-03
      4.50000000000000E-02   4.50000000000000E-02   0.00000000000000E+00   0.00000000000000E+00   7.47778836913264E-08
     -4.69780634762415E-18   7.47778836866286E-08   4.26717909422755E-14   0.00000000000000E+00   0.00000000000000E+00
      0.00000000000000E+00   0.00000000000000E+00  -7.47778836653481E-08  -2.12720518634388E-17  -7.47778836866202E-08
     -4.47551985647607E-14
      4.00000000000000E-03
      6.00000000000000E-02   6.00000000000000E-02   0.00000000000000E+00   0.00000000000000E+00   7.49272910297751E-08
     -4.21223908137947E-18   7.49272910255629E-08   4.35871981589382E-14   0.00000000000000E+00   0.00000000000000E+00
      0.00000000000000E+00   0.00000000000000E+00  -7.49272910762361E-08   5.06717418230806E-17  -7.49272910255643E-08
     -4.56706057816093E-14
      5.00000000000000E-03
      7.50000000000000E-02   7.50000000000000E-02   0.00000000000000E+00   0.00000000000000E+00   7.50550776567636E-08
     -2.67750744009784E-18   7.50550776540860E-08   4.45003732101630E-14   0.00000000000000E+00   0.00000000000000E+00
      0.00000000000000E+00   0.00000000000000E+00  -7.50550776936897E-08   3.96100915416665E-17  -7.50550776540797E-08
     -4.65837808330224E-14
      6.00000000000000E-03
      9.00000000000000E-02   9.00000000000000E-02   0.00000000000000E+00   0.00000000000000E+00   7.51683633728700E-08
     -2.22437200890364E-18   7.51683633706456E-08   4.54113159721497E-14   0.00000000000000E+00   0.00000000000000E+00
      0.00000000000000E+00   0.00000000000000E+00  -7.51683633957517E-08   2.51283650069060E-17  -7.51683633706233E-08
     -4.74947235952021E-14
      7.00000000000000E-03
      1.05000000000000E-01   1.05000000000000E-01   0.00000000000000E+00   0.00000000000000E+00   7.52715773216655E-08
     -1.48340226064617E-18   7.52715773201821E-08   4.63200347843097E-14   0.00000000000000E+00   0.00000000000000E+00
      0.00000000000000E+00   0.00000000000000E+00  -7.52715772912893E-08  -2.88832335254098E-17  -7.52715773201726E-08
     -4.84034424075587E-14
      8.00000000000000E-03
      1.20000000000000E-01   1.20000000000000E-01   0.00000000000000E+00   0.00000000000000E+00   7.53674966239780E-08
     -1.07152713163915E-18   7.53674966229065E-08   4.72265448658879E-14   0.00000000000000E+00   0.00000000000000E+00
      0.00000000000000E+00   0.00000000000000E+00  -7.53674966200770E-08  -2.84714685027400E-18  -7.53674966229242E-08
     -4.93099524893280E-14
      9.00000000000000E-03
      1.35000000000000E-01   1.35000000000000E-01   0.00000000000000E+00   0.00000000000000E+00   7.54578846834113E-08
     -7.94793333706004E-19   7.54578846826165E-08   4.81308669668549E-14   0.00000000000000E+00   0.00000000000000E+00
      0.00000000000000E+00   0.00000000000000E+00  -7.54578846319982E-08  -5.06404233751013E-17  -7.54578846826386E-08
     -5.02142745904926E-14
      1.00000000000000E-02
      1.50000000000000E-01   1.50000000000000E-01   0.00000000000000E+00   0.00000000000000E+00   7.55438838524090E-08
     -5.71110375038263E-19   7.55438838518379E-08   4.90330262224381E-14   0.00000000000000E+00   0.00000000000000E+00
      0.00000000000000E+00   0.00000000000000E+00  -7.55438838567205E-08   4.87608573502771E-18  -7.55438838518444E-08
     -5.11164338462732E-14
      1.10000000000000E-02
      1.65000000000000E-01   1.65000000000000E-01   0.00000000000000E+00   0.00000000000000E+00   7.56262548421982E-08
     -5.97987174495426E-19   7.56262548416002E-08   4.99330511844731E-14   0.00000000000000E+00   0.00000000000000E+00
      0.00000000000000E+00   0.00000000000000E+00  -7.56262548464935E-08   4.90073885306407E-18  -7.56262548415927E-08
     -5.20164588085017E-14
      1.20000000000000E-02
      1.80000000000000E-01   1.80000000000000E-01   0.00000000000000E+00   0.00000000000000E+00   7.57055222744168E-08
     -1.86748092629563E-19   7.57055222742300E-08   5.08309730058537E-14   0.00000000000000E+00   0.00000000000000E+00
      0.00000000000000E+00   0.00000000000000E+00  -7.57055223407401E-08   6.64868779522111E-17  -7.57055222742532E-08
     -5.29143806300875E-14
      1.30000000000000E-02
      1.95000000000000E-01   1.95000000000000E-01   0.00000000000000E+00   0.00000000000000E+00   7.57820635807843E-08
     -4.78032389736559E-19   7.57820635803063E-08   5.17268247571424E-14   0.00000000000000E+00   0.00000000000000E+00
      0.00000000000000E+00   0.00000000000000E+00  -7.57820635767486E-08  -3.53494142165238E-18  -7.57820635802835E-08
     -5.38102323815745E-14
      1.40000000000000E-02
      2.10000000000000E-01   2.10000000000000E-01   0.00000000000000E+00   0.00000000000000E+00   7.58561638022969E-08
     -1.48026287432695E-19   7.58561638021489E-08   5.26206408569245E-14   0.00000000000000E+00   0.00000000000000E+00
      0.00000000000000E+00   0.00000000000000E+00  -7.58561637906563E-08  -1.14979482922037E-17  -7.58561638021542E-08
     -5.47040484815595E-14
      1.50000000000000E-02
      2.25000000000000E-01   2.25000000000000E-01   0.00000000000000E+00   0.00000000000000E+00   7.59280493410922E-08
      1.31616415484336E-19   7.59280493412238E-08   5.35124565997496E-14   0.00000000000000E+00   0.00000000000000E+00
      0.00000000000000E+00   0.00000000000000E+00  -7.59280493303628E-08  -1.08793653176746E-17  -7.59280493412422E-08
     -5.55958642245855E-14
      1.60000000000000E-02
      2.40000000000000E-01   2.40000000000000E-01   0.00000000000000E+00   0.00000000000000E+00   7.59979080642362E-08
     -2.43853184990795E-19   7.59979080639924E-08   5.44023077675253E-14   0.00000000000000E+00   0.00000000000000E+00
      0.00000000000000E+00   0.00000000000000E+00  -7.59979080811090E-08   1.71368492440531E-17  -7.59979080639721E-08
     -5.64857153925665E-14
      1.70000000000000E-02
      2.55000000000000E-01   2.55000000000000E-01   0.00000000000000E+00   0.00000000000000E+00   7.60659005267449E-08
      1.18872448998524E-19   7.60659005268638E-08   5.52902303119943E-14   0.00000000000000E+00   0.00000000000000E+00
      0.00000000000000E+00   0.00000000000000E+00  -7.60659005073053E-08  -1.95463950395031E-17  -7.60659005268517E-08
     -5.73736379372403E-14
      1.80000000000000E-02
      2.70000000000000E-01   2.70000000000000E-01   0.00000000000000E+00   0.00000000000000E+00   7.61321660832215E-08
     -4.10915940519425E-19   7.61321660828106E-08   5.61762600975260E-14   0.00000000000000E+00   0.00000000000000E+00
      0.00000000000000E+00   0.00000000000000E+00  -7.61321660631326E-08  -1.96622462447459E-17  -7.61321660827948E-08
     -5.82596677229783E-14
      1.90000000000000E-02
      2.85000000000000E-01   2.85000000000000E-01   0.00000000000000E+00   0.00000000000000E+00   7.61968269101099E-08
      3.26717954517951E-19   7.61968269104366E-08   5.70604326948515E-14   0.00000000000000E+00   0.00000000000000E+00
      0.00000000000000E+00   0.00000000000000E+00  -7.61968269047643E-08  -5.66797143373342E-18  -7.61968269104323E-08
     -5.91438403205139E-14
      2.00000000000000E-02
      3.00000000000000E-01   3.00000000000000E-01   0.00000000000000E+00   0.00000000000000E+00   7.62599917734919E-08
     -2.21353024755882E-19   7.62599917732706E-08   5.79427832176708E-14   0.00000000000000E+00   0.00000000000000E+00
      0.00000000000000E+00   0.00000000000000E+00  -7.62599917703926E-08  -2.86686487782264E-18  -7.62599917732595E-08
     -6.00261908435422E-14
      2.10000000000000E-02
      3.15000000000000E-01   3.15000000000000E-01   0.00000000000000E+00   0.00000000000000E+00   7.63217599264209E-08
      2.59241830713500E-19   7.63217599266802E-08   5.88233461951981E-14   0.00000000000000E+00   0.00000000000000E+00
      0.00000000000000E+00   0.00000000000000E+00  -7.63217599565469E-08   2.98582115063683E-17  -7.63217599266887E-08
     -6.09067538212801E-14
      2.20000000000000E-02
      3.30000000000000E-01   3.30000000000000E-01   0.00000000000000E+00   0.00000000000000E+00   7.63822244300659E-08
      3.06022837626576E-19   7.63822244303719E-08   5.97021554747409E-14   0.00000000000000E+00   0.00000000000000E+00
      0.00000000000000E+00   0.00000000000000E+00  -7.63822244183786E-08  -1.20085348195349E-17  -7.63822244303871E-08
     -6.17855631010322E-14
      2.30000000000000E-02
      3.45000000000000E-01   3.45000000000000E-01   0.00000000000000E+00   0.00000000000000E+00   7.64414739398259E-08
      7.44666512263013E-20   7.64414739399004E-08   6.05792441492499E-14   0.00000000000000E+00   0.00000000000000E+00
      0.00000000000000E+00   0.00000000000000E+00  -7.64414739819815E-08   4.20986933100434E-17  -7.64414739398828E-08
     -6.26626517757585E-14
      2.40000000000000E-02
      3.60000000000000E-01   3.60000000000000E-01   0.00000000000000E+00   0.00000000000000E+00   7.64995925573312E-08
     -4.83639311898343E-20   7.64995925572829E-08   6.14546445055362E-14   0.00000000000000E+00   0.00000000000000E+00
      0.00000000000000E+00   0.00000000000000E+00  -7.64995925389156E-08  -1.83684440177553E-17  -7.64995925572840E-08
     -6.35380521322582E-14
      2.50000000000000E-02
      3.75000000000000E-01   3.75000000000000E-01   0.00000000000000E+00   0.00000000000000E+00   7.65566582573400E-08
     -1.78350556565368E-19   7.65566582571617E-08   6.23283879894471E-14   0.00000000000000E+00   0.00000000000000E+00
      0.00000000000000E+00   0.00000000000000E+00  -7.65566582376911E-08  -1.94710070401471E-17  -7.65566582571621E-08
     -6.44117956163801E-14
      2.60000000000000E-02
      3.90000000000000E-01   3.90000000000000E-01   0.00000000000000E+00   0.00000000000000E+00   7.66127410732296E-08
      3.60692742032737E-20   7.66127410732656E-08   6.32005051848733E-14   0.00000000000000E+00   0.00000000000000E+00
      0.00000000000000E+00   0.00000000000000E+00  -7.66127410651694E-08  -8.08141981762210E-18  -7.66127410732508E-08
     -6.52839128120280E-14
      2.70000000000000E-02
      4.05000000000000E-01   4.05000000000000E-01   0.00000000000000E+00   0.00000000000000E+00   7.66679022974787E-08
      1.79478074734368E-19   7.66679022976582E-08   6.40710258039143E-14   0.00000000000000E+00   0.00000000000000E+00
      0.00000000000000E+00   0.00000000000000E+00  -7.66679022735105E-08  -2.41584547853067E-17  -7.66679022976690E-08
     -6.61544334312850E-14
      2.80000000000000E-02
      4.20000000000000E-01   4.20000000000000E-01   0.00000000000000E+00   0.00000000000000E+00   7.67221954183702E-08
      2.36090067492749E-19   7.67221954186063E-08   6.49399786859752E-14   0.00000000000000E+00   0.00000000000000E+00
      0.00000000000000E+00   0.00000000000000E+00  -7.67221954379283E-08   1.93309218601000E-17  -7.67221954185974E-08
     -6.70233863135718E-14
      2.90000000000000E-02
      4.35000000000000E-01   4.35000000000000E-01   0.00000000000000E+00   0.00000000000000E+00   7.67756686668654E-08
      1.40365656244172E-20   7.67756686668795E-08   6.58073918039641E-14   0.00000000000000E+00   0.00000000000000E+00
      0.00000000000000E+00   0.00000000000000E+00  -7.67756686657030E-08  -1.18150249060644E-18  -7.67756686668845E-08
     -6.78907994317798E-14
      3.00000000000000E-02
      4.50000000000000E-01   4.50000000000000E-01   0.00000000000000E+00   0.00000000000000E+00   7.68283682966789E-08
     -3.10096418448060E-20   7.68283682966478E-08   6.66732922760635E-14   0.00000000000000E+00   0.00000000000000E+00
      0.00000000000000E+00   0.00000000000000E+00  -7.68283683128231E-08   1.61790445058537E-17  -7.68283682966441E-08
     -6.87566999041080E-14
      3.10000000000000E-02
      4.65000000000000E-01   4.65000000000000E-01   0.00000000000000E+00   0.00000000000000E+00   7.68803413849604E-08
      5.04327193022528E-20   7.68803413850108E-08   6.75377063818445E-14   0.00000000000000E+00   0.00000000000000E+00
      0.00000000000000E+00   0.00000000000000E+00  -7.68803413669429E-08  -1.80364802796662E-17  -7.68803413849794E-08
     -6.96211140101127E-14
      3.20000000000000E-02
      4.80000000000000E-01   4.80000000000000E-01   0.00000000000000E+00   0.00000000000000E+00   7.69316371248359E-08
     -5.65603635553998E-20   7.69316371247793E-08   6.84006595816819E-14   0.00000000000000E+00   0.00000000000000E+00
      0.00000000000000E+00   0.00000000000000E+00  -7.69316371231574E-08  -1.62997160286546E-18  -7.69316371247873E-08
     -7.04840672101780E-14
      3.30000000000000E-02
      4.95000000000000E-01   4.95000000000000E-01   0.00000000000000E+00   0.00000000000000E+00   7.69823061630355E-08
      1.23671357468174E-19   7.69823061631592E-08   6.92621765386249E-14   0.00000000000000E+00   0.00000000000000E+00
      0.00000000000000E+00   0.00000000000000E+00  -7.69823061527054E-08  -1.04444069571475E-17  -7.69823061631498E-08
     -7.13455841673549E-14
      3.40000000000000E-02
      5.10000000000000E-01   5.10000000000000E-01   0.00000000000000E+00   0.00000000000000E+00   7.70323982554082E-08
     -7.88202499094097E-20   7.70323982553293E-08   7.01222811419950E-14   0.00000000000000E+00   0.00000000000000E+00
      0.00000000000000E+00   0.00000000000000E+00  -7.70323982731411E-08   1.78033364768401E-17  -7.70323982553378E-08
     -7.22056887709534E-14
      3.50000000000000E-02
      5.25000000000000E-01   5.25000000000000E-01   0.00000000000000E+00   0.00000000000000E+00   7.70819590961762E-08
     -1.01107505605558E-19   7.70819590960751E-08   7.09809965321083E-14   0.00000000000000E+00   0.00000000000000E+00
      0.00000000000000E+00   0.00000000000000E+00  -7.70819591209714E-08   2.49176309728491E-17  -7.70819590960538E-08
     -7.30644041613015E-14
      3.60000000000000E-02
      5.40000000000000E-01   5.40000000000000E-01   0.00000000000000E+00   0.00000000000000E+00   7.71310274374932E-08
      1.93441004297688E-19   7.71310274376866E-08   7.18383451256244E-14   0.00000000000000E+00   0.00000000000000E+00
      0.00000000000000E+00   0.00000000000000E+00  -7.71310274361760E-08  -1.53169966969336E-18  -7.71310274377077E-08
     -7.39217527550488E-14
      3.70000000000000E-02
      5.55000000000000E-01   5.55000000000000E-01   0.00000000000000E+00   0.00000000000000E+00   7.71796335017271E-08
      4.84755008131676E-19   7.71796335022119E-08   7.26943486411138E-14   0.00000000000000E+00   0.00000000000000E+00
      0.00000000000000E+00   0.00000000000000E+00  -7.71796335088285E-08   6.62754516234225E-18  -7.71796335022009E-08
     -7.47777562707774E-14
      3.80000000000000E-02
      5.70000000000000E-01   5.70000000000000E-01   0.00000000000000E+00   0.00000000000000E+00   7.72277992704550E-08
     -1.71091103312182E-19   7.72277992702839E-08   7.35490281245335E-14   0.00000000000000E+00   0.00000000000000E+00
      0.00000000000000E+00   0.00000000000000E+00  -7.72277992663584E-08  -3.92884175526304E-18  -7.72277992702872E-08
     -7.56324357544398E-14
      3.90000000000000E-02
      5.85000000000000E-01   5.85000000000000E-01   0.00000000000000E+00   0.00000000000000E+00   7.72755406622405E-08
      3.55654302244881E-19   7.72755406625962E-08   7.44024039743827E-14   0.00000000000000E+00   0.00000000000000E+00
      0.00000000000000E+00   0.00000000000000E+00  -7.72755406388963E-08  -2.37066894778430E-17  -7.72755406626030E-08
     -7.64858116045313E-14
      4.00000000000000E-02
      6.00000000000000E-01   6.00000000000000E-01   0.00000000000000E+00   0.00000000000000E+00   7.73228710632475E-08
      3.39654337562657E-20   7.73228710632815E-08   7.52544959663668E-14   0.00000000000000E+00   0.00000000000000E+00
      0.00000000000000E+00   0.00000000000000E+00  -7.73228710674772E-08   4.22456203036836E-18  -7.73228710632527E-08
     -7.73379035967558E-14
      4.10000000000000E-02
      6.15000000000000E-01   6.15000000000000E-01   0.00000000000000E+00   0.00000000000000E+00   7.73698053033604E-08
      9.80874820207962E-20   7.73698053034585E-08   7.61053232774709E-14   0.00000000000000E+00   0.00000000000000E+00
      0.00000000000000E+00   0.00000000000000E+00  -7.73698052929243E-08  -1.05173867089953E-17  -7.73698053034417E-08
     -7.81887309081095E-14
      4.20000000000000E-02
      6.30000000000000E-01   6.30000000000000E-01   0.00000000000000E+00   0.00000000000000E+00   7.74163630644922E-08
     -2.43784843908022E-19   7.74163630642484E-08   7.69549045093674E-14   0.00000000000000E+00   0.00000000000000E+00
      0.00000000000000E+00   0.00000000000000E+00  -7.74163630614798E-08  -2.76086843275980E-18  -7.74163630642407E-08
     -7.90383121402529E-14
      4.30000000000000E-02
      6.45000000000000E-01   6.45000000000000E-01   0.00000000000000E+00   0.00000000000000E+00   7.74625708734805E-08
     -3.73392969044224E-20   7.74625708734432E-08   7.78032577111170E-14   0.00000000000000E+00   0.00000000000000E+00
      0.00000000000000E+00   0.00000000000000E+00  -7.74625708777362E-08   4.28745064561434E-18  -7.74625708734487E-08
     -7.98866653422530E-14
      4.40000000000000E-02
      6.60000000000000E-01   6.60000000000000E-01   0.00000000000000E+00   0.00000000000000E+00   7.75084622005167E-08
      1.25793542589086E-19   7.75084622006425E-08   7.86504004011205E-14   0.00000000000000E+00   0.00000000000000E+00
      0.00000000000000E+00   0.00000000000000E+00  -7.75084622056422E-08   4.97199974069164E-18  -7.75084622006702E-08
     -8.07338080325105E-14
      4.50000000000000E-02
      6.75000000000000E-01   6.75000000000000E-01   0.00000000000000E+00   0.00000000000000E+00   7.75540756419254E-08
      1.82798486025650E-19   7.75540756421082E-08   7.94963495883157E-14   0.00000000000000E+00   0.00000000000000E+00
      0.00000000000000E+00   0.00000000000000E+00  -7.75540756439924E-08   1.88111479292877E-18  -7.75540756421113E-08
     -8.15797572199630E-14
      4.60000000000000E-02
      6.90000000000001E-01   6.90000000000001E-01   0.00000000000000E+00   0.00000000000000E+00   7.75994515945076E-08
      1.18355405967797E-19   7.75994515946260E-08   8.03411217925678E-14   0.00000000000000E+00   0.00000000000000E+00
      0.00000000000000E+00   0.00000000000000E+00  -7.75994515847737E-08  -9.88365044934126E-18  -7.75994515946574E-08
     -8.24245294244740E-14
      4.70000000000000E-02
      7.05000000000001E-01   7.05000000000001E-01   0.00000000000000E+00   0.00000000000000E+00   7.76446281365500E-08
      1.35769741632743E-20   7.76446281365636E-08   8.11847330642644E-14   0.00000000000000E+00   0.00000000000000E+00
      0.00000000000000E+00   0.00000000000000E+00  -7.76446281355695E-08  -9.83028566476726E-19  -7.76446281365525E-08
     -8.32681406964268E-14
      4.80000000000000E-02
      7.20000000000001E-01   7.20000000000001E-01   0.00000000000000E+00   0.00000000000000E+00   7.76896369699261E-08
      3.20747678708215E-20   7.76896369699581E-08   8.20271990030664E-14   0.00000000000000E+00   0.00000000000000E+00
      0.00000000000000E+00   0.00000000000000E+00  -7.76896369704703E-08   5.21793924574053E-19  -7.76896369699486E-08
     -8.41106066354926E-14
      4.90000000000000E-02
      7.35000000000001E-01   7.35000000000001E-01   0.00000000000000E+00   0.00000000000000E+00   7.77345002423512E-08
     -5.24359762566494E-20   7.77345002422988E-08   8.28685347758428E-14   0.00000000000000E+00   0.00000000000000E+00
      0.00000000000000E+00   0.00000000000000E+00  -7.77345002325471E-08  -9.76298242945114E-18  -7.77345002423101E-08
     -8.49519424085374E-14
      5.00000000000000E-02
      7.50000000000001E-01   7.50000000000001E-01   0.00000000000000E+00   0.00000000000000E+00   7.77792288836600E-08
      1.30600859737460E-19   7.77792288837906E-08   8.37087551337623E-14   0.00000000000000E+00   0.00000000000000E+00
      0.00000000000000E+00   0.00000000000000E+00  -7.77792288666120E-08  -1.72036254556771E-17  -7.77792288838157E-08
     -8.57921627667251E-14
      5.10000000000000E-02
      7.65000000000001E-01   7.65000000000001E-01   0.00000000000000E+00   0.00000000000000E+00   7.78238227993901E-08
      1.25034689922787E-20   7.78238227994026E-08   8.45478744285777E-14   0.00000000000000E+00   0.00000000000000E+00
      0.00000000000000E+00   0.00000000000000E+00  -7.78238227913755E-08  -8.01766053554447E-18  -7.78238227993932E-08
     -8.66312820618102E-14
      5.20000000000000E-02
      7.80000000000001E-01   7.80000000000001E-01   0.00000000000000E+00   0.00000000000000E+00   7.78682729244291E-08
      8.23904786998952E-20   7.78682729245115E-08   8.53859066281203E-14   0.00000000000000E+00   0.00000000000000E+00
      0.00000000000000E+00   0.00000000000000E+00  -7.78682728789475E-08  -4.55479296424680E-17  -7.78682729244954E-08
     -8.74693142616279E-14
      5.30000000000000E-02
      7.95000000000001E-01   7.95000000000001E-01   0.00000000000000E+00   0.00000000000000E+00   7.79125648091753E-08
      3.64794544455819E-19   7.79125648095401E-08   8.62228653310435E-14   0.00000000000000E+00   0.00000000000000E+00
      0.00000000000000E+00   0.00000000000000E+00  -7.79125648367653E-08   2.72112842495185E-17  -7.79125648095540E-08
     -8.83062729648308E-14
      5.40000000000000E-02
      8.10000000000001E-01   8.10000000000001E-01   0.00000000000000E+00   0.00000000000000E+00   7.79566831479111E-08
      1.98841548878051E-19   7.79566831481099E-08   8.70587637808695E-14   0.00000000000000E+00   0.00000000000000E+00
      0.00000000000000E+00   0.00000000000000E+00  -7.79566831747087E-08   2.66338482116885E-17  -7.79566831480749E-08
     -8.91421714149346E-14
      5.50000000000000E-02
      8.25000000000001E-01   8.25000000000001E-01   0.00000000000000E+00   0.00000000000000E+00   7.80006165089003E-08
      1.61456183552663E-19   7.80006165090618E-08   8.78936148793704E-14   0.00000000000000E+00   0.00000000000000E+00
      0.00000000000000E+00   0.00000000000000E+00  -7.80006165606372E-08   5.15676951808867E-17  -7.80006165090695E-08
     -8.99770225137206E-14
      5.60000000000000E-02
      8.40000000000001E-01   8.40000000000001E-01   0.00000000000000E+00   0.00000000000000E+00   7.80443615107723E-08
      7.60337032254085E-20   7.80443615108483E-08   8.87274311993549E-14   0.00000000000000E+00   0.00000000000000E+00
      0.00000000000000E+00   0.00000000000000E+00  -7.80443615131026E-08   2.25412985363216E-18  -7.80443615108485E-08
     -9.08108388339893E-14
      5.70000000000000E-02
      8.55000000000001E-01   8.55000000000001E-01   0.00000000000000E+00   0.00000000000000E+00   7.80879258046119E-08
      1.03235622789834E-21   7.80879258046130E-08   8.95602249968886E-14   0.00000000000000E+00   0.00000000000000E+00
      0.00000000000000E+00   0.00000000000000E+00  -7.80879258473500E-08   4.27389542334457E-17  -7.80879258046111E-08
     -9.16436326318115E-14
      5.80000000000000E-02
      8.70000000000001E-01   8.70000000000001E-01   0.00000000000000E+00   0.00000000000000E+00   7.81313294343094E-08
      5.21279013385711E-21   7.81313294343146E-08   9.03920082229955E-14   0.00000000000000E+00   0.00000000000000E+00
      0.00000000000000E+00   0.00000000000000E+00  -7.81313294349471E-08   6.15747289989081E-19  -7.81313294343314E-08
     -9.24754158582097E-14
      5.90000000000000E-02
      8.85000000000001E-01   8.85000000000001E-01   0.00000000000000E+00   0.00000000000000E+00   7.81746044109546E-08
     -3.35648886868635E-21   7.81746044109512E-08   9.12227925348644E-14   0.00000000000000E+00   0.00000000000000E+00
      0.00000000000000E+00   0.00000000000000E+00  -7.81746044208770E-08   9.90809870575856E-18  -7.81746044109689E-08
     -9.33062001703721E-14
      6.00000000000000E-02
      9.00000000000001E-01   9.00000000000001E-01   0.00000000000000E+00   0.00000000000000E+00   7.82177925995097E-08
      1.49669840266032E-19   7.82177925996594E-08   9.20525893065845E-14   0.00000000000000E+00   0.00000000000000E+00
      0.00000000000000E+00   0.00000000000000E+00  -7.82177925974764E-08  -2.14418526047775E-18  -7.82177925996206E-08
     -9.41359969423908E-14
      6.10000000000000E-02
      9.15000000000001E-01   9.15000000000001E-01   0.00000000000000E+00   0.00000000000000E+00   7.82609422364507E-08
      1.36625308871237E-19   7.82609422365873E-08   9.28814096394255E-14   0.00000000000000E+00   0.00000000000000E+00
      0.00000000000000E+00   0.00000000000000E+00  -7.82609422374462E-08   8.67156006851378E-19  -7.82609422365791E-08
     -9.49648172755347E-14
      6.20000000000000E-02
      9.30000000000001E-01   9.30000000000001E-01   0.00000000000000E+00   0.00000000000000E+00   7.83041035511018E-08
     -4.82490786799406E-20   7.83041035510535E-08   9.37092643716649E-14   0.00000000000000E+00   0.00000000000000E+00
      0.00000000000000E+00   0.00000000000000E+00  -7.83041035487933E-08  -2.25802337540383E-18  -7.83041035510513E-08
     -9.57926720080773E-14
      6.30000000000000E-02
      9.45000000000001E-01   9.45000000000001E-01   0.00000000000000E+00   0.00000000000000E+00   7.83473240434791E-08
      4.52156594328872E-20   7.83473240435243E-08   9.45361640879737E-14   0.00000000000000E+00   0.00000000000000E+00
      0.00000000000000E+00   0.00000000000000E+00  -7.83473240240537E-08  -1.94856356134347E-17  -7.83473240435393E-08
     -9.66195717246971E-14
      6.40000000000000E-02
      9.60000000000001E-01   9.60000000000001E-01   0.00000000000000E+00   0.00000000000000E+00   7.83906439824245E-08
      4.19075105519628E-19   7.83906439828435E-08   9.53621191283654E-14   0.00000000000000E+00   0.00000000000000E+00
      0.00000000000000E+00   0.00000000000000E+00  -7.83906440267815E-08   4.39650465632588E-17  -7.83906439828165E-08
     -9.74455267653973E-14
      6.50000000000000E-02
      9.75000000000001E-01   9.75000000000001E-01   0.00000000000000E+00   0.00000000000000E+00   7.84340926402769E-08
      1.29288709260568E-19   7.84340926404062E-08   9.61871395967055E-14   0.00000000000000E+00   0.00000000000000E+00
      0.00000000000000E+00   0.00000000000000E+00  -7.84340926379650E-08  -2.43303784550013E-18  -7.84340926403981E-08
     -9.82705472340559E-14
      6.60000000000000E-02
      9.90000000000001E-01   9.90000000000001E-01   0.00000000000000E+00   0.00000000000000E+00   7.84776856857942E-08
      3.10617309303673E-20   7.84776856858253E-08   9.70112353688068E-14   0.00000000000000E+00   0.00000000000000E+00
      0.00000000000000E+00   0.00000000000000E+00  -7.84776857037144E-08   1.79144400969757E-17  -7.84776856858000E-08
     -9.90946430064755E-14
      6.70000000000000E-02
      1.00500000000000E+00   1.00500000000000E+00   0.00000000000000E+00   0.00000000000000E+00   7.85214240260089E-08
      4.22723286516887E-19   7.85214240264316E-08   9.78344161001007E-14   0.00000000000000E+00   0.00000000000000E+00
      0.00000000000000E+00   0.00000000000000E+00  -7.85214240325667E-08   6.13388989011098E-18  -7.85214240264328E-08
     -9.99178237380910E-14
      6.80000000000000E-02
      1.02000000000000E+00   1.02000000000000E+00   0.00000000000000E+00   0.00000000000000E+00   7.85652942303237E-08
      9.48177464144871E-21   7.85652942303332E-08   9.86566912329186E-14   0.00000000000000E+00   0.00000000000000E+00
      0.00000000000000E+00   0.00000000000000E+00  -7.85652942239597E-08  -6.36776472110523E-18  -7.85652942303275E-08
     -1.00740098871236E-13
      6.90000000000000E-02