DF-ISE text

Info {
  version   = 1.0
  type      = xyplot
  datasets  = [
    "time"
    "ntype OuterVoltage" "ntype InnerVoltage" "ntype QuasiFermiPotential" "ntype DisplacementCurrent" "ntype eCurrent"
    "ntype hCurrent" "ntype TotalCurrent" "ntype Charge" "ptype OuterVoltage" "ptype InnerVoltage"
    "ptype QuasiFermiPotential" "ptype DisplacementCurrent" "ptype eCurrent" "ptype hCurrent" "ptype TotalCurrent"
    "ptype Charge" ]
  functions = [
    Time
    OuterVoltage InnerVoltage QuasiFermiPotential DisplacementCurrent eCurrent
    hCurrent TotalCurrent Charge OuterVoltage InnerVoltage
    QuasiFermiPotential DisplacementCurrent eCurrent hCurrent TotalCurrent
    Charge ]
}

Data {
      0.00000000000000E+00
      0.00000000000000E+00   0.00000000000000E+00   0.00000000000000E+00   0.00000000000000E+00   3.16049397556674E-07
     -3.16049397556674E-07   6.91258365328889E-23  -7.81586632637634E-30   0.00000000000000E+00   0.00000000000000E+00
      0.00000000000000E+00   0.00000000000000E+00   1.79183677525771E-06  -1.79183677525778E-06  -6.77433198022312E-20
     -2.64258235779071E-27
      0.00000000000000E+00
      0.00000000000000E+00   0.00000000000000E+00   0.00000000000000E+00   0.00000000000000E+00   1.16985055006162E-06
     -3.16039571603021E-07   8.53810978458600E-07  -4.35323643908638E-30   0.00000000000000E+00   0.00000000000000E+00
      0.00000000000000E+00   0.00000000000000E+00   2.18131536501387E-07  -1.07194262824569E-06  -8.53811091744303E-07
     -1.04279049620172E-26
      0.00000000000000E+00
      0.00000000000000E+00   0.00000000000000E+00   0.00000000000000E+00   0.00000000000000E+00   1.09207178263301E-06
     -4.19701769368519E-19   1.09207178263259E-06   3.52462457086153E-30   0.00000000000000E+00   0.00000000000000E+00
      0.00000000000000E+00   0.00000000000000E+00  -1.09207178272761E-06   9.50200181979917E-17  -1.09207178263259E-06
     -7.80177387635470E-28
      1.00000000000000E-03
      1.50000000000000E-02   1.50000000000000E-02   0.00000000000000E+00   0.00000000000000E+00   1.09403515750128E-06
     -1.57340335164632E-15   1.09403515592787E-06  -3.90415299955576E-30   0.00000000000000E+00   0.00000000000000E+00
      0.00000000000000E+00   0.00000000000000E+00  -1.09403515597615E-06   4.82895172605595E-17  -1.09403515592786E-06
      2.19697062054010E-28
      2.00000000000000E-03
      3.00000000000000E-02   3.00000000000000E-02   0.00000000000000E+00   0.00000000000000E+00   1.09590471160688E-06
     -1.53718601266893E-17   1.09590471159150E-06   9.56683812090987E-30   0.00000000000000E+00   0.00000000000000E+00
      0.00000000000000E+00   0.00000000000000E+00  -1.09590471149405E-06  -9.74451672116906E-17  -1.09590471159149E-06
      2.77203935361177E-27
      3.00000000000000E-03
      4.50000000000000E-02   4.50000000000000E-02   0.00000000000000E+00   0.00000000000000E+00   1.09770021648236E-06
     -1.85094748938300E-18   1.09770021648051E-06  -6.07850312091950E-31   0.00000000000000E+00   0.00000000000000E+00
      0.00000000000000E+00   0.00000000000000E+00  -1.09770021647909E-06  -1.42703113666267E-18  -1.09770021648052E-06
     -2.07073130000295E-27
      4.00000000000000E-03
      6.00000000000000E-02   6.00000000000000E-02   0.00000000000000E+00   0.00000000000000E+00   1.09943518463521E-06
      6.11076890830341E-18   1.09943518464132E-06  -4.33357958819783E-30   0.00000000000000E+00   0.00000000000000E+00
      0.00000000000000E+00   0.00000000000000E+00  -1.09943518459656E-06  -4.47612884575280E-17  -1.09943518464132E-06
     -3.78251035799562E-27
      5.00000000000000E-03
      7.50000000000000E-02   7.50000000000000E-02   0.00000000000000E+00   0.00000000000000E+00   1.10111867802121E-06
      1.05344863355293E-17   1.10111867803175E-06   1.19453170784239E-30   0.00000000000000E+00   0.00000000000000E+00
      0.00000000000000E+00   0.00000000000000E+00  -1.10111867801151E-06  -2.02396097275837E-17  -1.10111867803175E-06
      1.74240745580793E-27
      6.00000000000000E-03
      9.00000000000000E-02   9.00000000000000E-02   0.00000000000000E+00   0.00000000000000E+00   1.10275699849987E-06
      1.35709970061023E-17   1.10275699851344E-06   4.27460903553219E-30   0.00000000000000E+00   0.00000000000000E+00
      0.00000000000000E+00   0.00000000000000E+00  -1.10275699852859E-06   1.51414317833292E-17  -1.10275699851345E-06
      3.97815953108568E-27
      7.00000000000000E-03
      1.05000000000000E-01   1.05000000000000E-01   0.00000000000000E+00   0.00000000000000E+00   1.10435499338362E-06
      1.45025650641077E-17   1.10435499339812E-06   2.24692926310606E-30   0.00000000000000E+00   0.00000000000000E+00
      0.00000000000000E+00   0.00000000000000E+00  -1.10435499339358E-06  -4.54937469690273E-18  -1.10435499339813E-06
      2.12792366369590E-27
      8.00000000000000E-03
      1.20000000000000E-01   1.20000000000000E-01   0.00000000000000E+00   0.00000000000000E+00   1.10591676163668E-06
      1.67596942138098E-17   1.10591676165344E-06   4.26856077372033E-30   0.00000000000000E+00   0.00000000000000E+00
      0.00000000000000E+00   0.00000000000000E+00  -1.10591676157603E-06  -7.74053247386455E-17  -1.10591676165344E-06
      3.54004763848177E-27
      9.00000000000000E-03
      1.35000000000000E-01   1.35000000000000E-01   0.00000000000000E+00   0.00000000000000E+00   1.10744579483818E-06
      1.64017721082115E-17   1.10744579485459E-06  -1.01656160402840E-29   0.00000000000000E+00   0.00000000000000E+00
      0.00000000000000E+00   0.00000000000000E+00  -1.10744579483145E-06  -2.31474996957670E-17  -1.10744579485459E-06
      3.45556551749371E-27
      1.00000000000000E-02
      1.50000000000000E-01   1.50000000000000E-01   0.00000000000000E+00   0.00000000000000E+00   1.10894481737974E-06
      1.64430895117824E-17   1.10894481739619E-06  -3.68036731251693E-30   0.00000000000000E+00   0.00000000000000E+00
      0.00000000000000E+00   0.00000000000000E+00  -1.10894481732134E-06  -7.48418127349820E-17  -1.10894481739618E-06
      2.73635460892179E-27
      1.10000000000000E-02
      1.65000000000000E-01   1.65000000000000E-01   0.00000000000000E+00   0.00000000000000E+00   1.11041565961602E-06
      1.67859226083636E-17   1.11041565963280E-06  -4.27309697007923E-30   0.00000000000000E+00   0.00000000000000E+00
      0.00000000000000E+00   0.00000000000000E+00  -1.11041565962685E-06  -5.95620380783867E-18  -1.11041565963281E-06
      4.65062947237554E-28
      1.20000000000000E-02
      1.80000000000000E-01   1.80000000000000E-01   0.00000000000000E+00   0.00000000000000E+00   1.11185937862264E-06
      1.55064182253938E-17   1.11185937863814E-06   3.61686056349240E-30   0.00000000000000E+00   0.00000000000000E+00
      0.00000000000000E+00   0.00000000000000E+00  -1.11185937857283E-06  -6.53034030391402E-17  -1.11185937863814E-06
      9.95568087279436E-28
      1.30000000000000E-02
      1.95000000000000E-01   1.95000000000000E-01   0.00000000000000E+00   0.00000000000000E+00   1.11327662637506E-06
      1.55487979661616E-17   1.11327662639061E-06  -5.11985362373966E-30   0.00000000000000E+00   0.00000000000000E+00
      0.00000000000000E+00   0.00000000000000E+00  -1.11327662634997E-06  -4.06322726979807E-17  -1.11327662639060E-06
      8.81976891843252E-27
      1.40000000000000E-02
      2.10000000000000E-01   2.10000000000000E-01   0.00000000000000E+00   0.00000000000000E+00   1.11466808349921E-06
      1.52259281276471E-17   1.11466808351444E-06   4.12793868659458E-30   0.00000000000000E+00   0.00000000000000E+00
      0.00000000000000E+00   0.00000000000000E+00  -1.11466808348102E-06  -3.33980210776555E-17  -1.11466808351442E-06
      5.91014370512456E-27
      1.50000000000000E-02
      2.25000000000000E-01   2.25000000000000E-01   0.00000000000000E+00   0.00000000000000E+00   1.11603473437264E-06
      1.48761191945719E-17   1.11603473438752E-06   9.39899885563074E-30   0.00000000000000E+00   0.00000000000000E+00
      0.00000000000000E+00   0.00000000000000E+00  -1.11603473432001E-06  -6.75056350011833E-17  -1.11603473438751E-06
     -2.32882272803865E-28
      1.60000000000000E-02
      2.40000000000000E-01   2.40000000000000E-01   0.00000000000000E+00   0.00000000000000E+00   1.11737786362412E-06
      1.57328710905906E-17   1.11737786363985E-06   8.00941070435586E-30   0.00000000000000E+00   0.00000000000000E+00
      0.00000000000000E+00   0.00000000000000E+00  -1.11737786356450E-06  -7.53628078869003E-17  -1.11737786363987E-06
      9.38588622402263E-27
      1.70000000000000E-02
      2.55000000000000E-01   2.55000000000000E-01   0.00000000000000E+00   0.00000000000000E+00   1.11869882745418E-06
      1.58135008434388E-17   1.11869882746999E-06  -2.16376566319299E-30   0.00000000000000E+00   0.00000000000000E+00
      0.00000000000000E+00   0.00000000000000E+00  -1.11869882739261E-06  -7.73835035887105E-17  -1.11869882746999E-06
     -6.34994911103578E-28
      1.80000000000000E-02
      2.70000000000000E-01   2.70000000000000E-01   0.00000000000000E+00   0.00000000000000E+00   1.11999875669060E-06
      1.66493950308692E-17   1.11999875670725E-06   1.11892843519414E-31   0.00000000000000E+00   0.00000000000000E+00
      0.00000000000000E+00   0.00000000000000E+00  -1.11999875661182E-06  -9.54308194083553E-17  -1.11999875670725E-06
      2.15397957558140E-27
      1.90000000000000E-02
      2.85000000000000E-01   2.85000000000000E-01   0.00000000000000E+00   0.00000000000000E+00   1.12127838948550E-06
      1.73586179455070E-17   1.12127838950286E-06   4.11281803206493E-31   0.00000000000000E+00   0.00000000000000E+00
      0.00000000000000E+00   0.00000000000000E+00  -1.12127838940226E-06  -1.00589140070667E-16  -1.12127838950285E-06
     -4.03160197245527E-27
      2.00000000000000E-02
      3.00000000000000E-01   3.00000000000000E-01   0.00000000000000E+00   0.00000000000000E+00   1.12253810992305E-06
      1.79257944891795E-17   1.12253810994098E-06   1.89008181620631E-31   0.00000000000000E+00   0.00000000000000E+00
      0.00000000000000E+00   0.00000000000000E+00  -1.12253810981477E-06  -1.26202080704619E-16  -1.12253810994097E-06
      6.81019764187110E-27
      2.10000000000000E-02
      3.15000000000000E-01   3.15000000000000E-01   0.00000000000000E+00   0.00000000000000E+00   1.12377817406331E-06
      1.87228641910247E-17   1.12377817408203E-06   3.14963233852620E-30   0.00000000000000E+00   0.00000000000000E+00
      0.00000000000000E+00   0.00000000000000E+00  -1.12377817410451E-06   2.24865860200450E-17  -1.12377817408203E-06
     -6.33357041804927E-27
      2.20000000000000E-02
      3.30000000000000E-01   3.30000000000000E-01   0.00000000000000E+00   0.00000000000000E+00   1.12499899322119E-06
      1.96935914953803E-17   1.12499899324089E-06   3.41877998915398E-30   0.00000000000000E+00   0.00000000000000E+00
      0.00000000000000E+00   0.00000000000000E+00  -1.12499899324791E-06   7.02690880865623E-18  -1.12499899324088E-06
     -1.50592041896420E-27
      2.30000000000000E-02
      3.45000000000000E-01   3.45000000000000E-01   0.00000000000000E+00   0.00000000000000E+00   1.12620132321097E-06
      2.04140880643917E-17   1.12620132323138E-06  -1.45158283484645E-31   0.00000000000000E+00   0.00000000000000E+00
      0.00000000000000E+00   0.00000000000000E+00  -1.12620132315651E-06  -7.48752580963892E-17  -1.12620132323138E-06
     -4.68861255655402E-28
      2.40000000000000E-02
      3.60000000000000E-01   3.60000000000000E-01   0.00000000000000E+00   0.00000000000000E+00   1.12738627063625E-06
      2.13479692727043E-17   1.12738627065760E-06   2.05338488512654E-30   0.00000000000000E+00   0.00000000000000E+00
      0.00000000000000E+00   0.00000000000000E+00  -1.12738627064675E-06  -1.08531468561366E-17  -1.12738627065761E-06
      3.00044591267485E-27
      2.50000000000000E-02
      3.75000000000000E-01   3.75000000000000E-01   0.00000000000000E+00   0.00000000000000E+00   1.12855512822554E-06
      2.14648791538090E-17   1.12855512824700E-06   6.74381192022412E-30   0.00000000000000E+00   0.00000000000000E+00
      0.00000000000000E+00   0.00000000000000E+00  -1.12855512817479E-06  -7.22102646392964E-17  -1.12855512824700E-06
      6.66179749005529E-27
      2.60000000000000E-02
      3.90000000000000E-01   3.90000000000000E-01   0.00000000000000E+00   0.00000000000000E+00   1.12970913323891E-06
      2.14678546700421E-17   1.12970913326038E-06   1.67234439097934E-30   0.00000000000000E+00   0.00000000000000E+00
      0.00000000000000E+00   0.00000000000000E+00  -1.12970913327468E-06   1.43121206842316E-17  -1.12970913326037E-06
     -8.32956939510487E-27
      2.70000000000000E-02
      4.05000000000000E-01   4.05000000000000E-01   0.00000000000000E+00   0.00000000000000E+00   1.13084926921331E-06
      2.17705253855749E-17   1.13084926923508E-06   1.04634929345181E-30   0.00000000000000E+00   0.00000000000000E+00
      0.00000000000000E+00   0.00000000000000E+00  -1.13084926927496E-06   3.98800361640546E-17  -1.13084926923508E-06
      3.04873523498075E-27
      2.80000000000000E-02
      4.20000000000000E-01   4.20000000000000E-01   0.00000000000000E+00   0.00000000000000E+00   1.13197620009634E-06
      2.22035198372905E-17   1.13197620011854E-06  -6.03767735368944E-30   0.00000000000000E+00   0.00000000000000E+00
      0.00000000000000E+00   0.00000000000000E+00  -1.13197620006872E-06  -4.98378614726037E-17  -1.13197620011855E-06
     -3.76545425968618E-27
      2.90000000000000E-02
      4.35000000000000E-01   4.35000000000000E-01   0.00000000000000E+00   0.00000000000000E+00   1.13309035940530E-06
      2.22342965633756E-17   1.13309035942754E-06   2.36789449934327E-30   0.00000000000000E+00   0.00000000000000E+00
      0.00000000000000E+00   0.00000000000000E+00  -1.13309035938356E-06  -4.39686997165258E-17  -1.13309035942753E-06
     -1.83005886598541E-27
      3.00000000000000E-02
      4.50000000000000E-01   4.50000000000000E-01   0.00000000000000E+00   0.00000000000000E+00   1.13419213344836E-06
      2.21773914186779E-17   1.13419213347053E-06   1.41529326397529E-30   0.00000000000000E+00   0.00000000000000E+00
      0.00000000000000E+00   0.00000000000000E+00  -1.13419213352184E-06   5.13238947510208E-17  -1.13419213347051E-06
     -3.46328309956564E-27
      3.10000000000000E-02
      4.65000000000000E-01   4.65000000000000E-01   0.00000000000000E+00   0.00000000000000E+00   1.13528205784833E-06
      2.24270527434450E-17   1.13528205787076E-06   6.26146304072827E-30   0.00000000000000E+00   0.00000000000000E+00
      0.00000000000000E+00   0.00000000000000E+00  -1.13528205785051E-06  -2.02306323470925E-17  -1.13528205787074E-06
      8.30290865703819E-27
      3.20000000000000E-02
      4.80000000000000E-01   4.80000000000000E-01   0.00000000000000E+00   0.00000000000000E+00   1.13636092286967E-06
      2.19336488586526E-17   1.13636092289161E-06  -1.02578520329149E-29   0.00000000000000E+00   0.00000000000000E+00
      0.00000000000000E+00   0.00000000000000E+00  -1.13636092286602E-06  -2.55886949493053E-17  -1.13636092289160E-06
     -1.10612063598134E-26
      3.30000000000000E-02
      4.95000000000000E-01   4.95000000000000E-01   0.00000000000000E+00   0.00000000000000E+00   1.13742974673404E-06
      2.16977516760395E-17   1.13742974675573E-06   1.80994234719916E-30   0.00000000000000E+00   0.00000000000000E+00
      0.00000000000000E+00   0.00000000000000E+00  -1.13742974680176E-06   4.60348612496731E-17  -1.13742974675573E-06
      5.07894318084423E-27
      3.40000000000000E-02
      5.10000000000000E-01   5.10000000000000E-01   0.00000000000000E+00   0.00000000000000E+00   1.13848963908300E-06
      2.15859581869295E-17   1.13848963910459E-06   8.73520212177909E-30   0.00000000000000E+00   0.00000000000000E+00
      0.00000000000000E+00   0.00000000000000E+00  -1.13848963906103E-06  -4.35589094715215E-17  -1.13848963910459E-06
     -3.75766409847250E-27
      3.50000000000000E-02
      5.25000000000000E-01   5.25000000000000E-01   0.00000000000000E+00   0.00000000000000E+00   1.13954161909263E-06
      2.15167708527041E-17   1.13954161911415E-06   1.00552352622176E-30   0.00000000000000E+00   0.00000000000000E+00
      0.00000000000000E+00   0.00000000000000E+00  -1.13954161911250E-06  -1.63968570182134E-18  -1.13954161911414E-06
     -8.52509760295869E-27
      3.60000000000000E-02
      5.40000000000000E-01   5.40000000000000E-01   0.00000000000000E+00   0.00000000000000E+00   1.14058646722170E-06
      2.13735178173561E-17   1.14058646724307E-06  -1.57859633289551E-30   0.00000000000000E+00   0.00000000000000E+00
      0.00000000000000E+00   0.00000000000000E+00  -1.14058646721918E-06  -2.38932427214238E-17  -1.14058646724307E-06
     -6.90101834123799E-27
      3.70000000000000E-02
      5.55000000000000E-01   5.55000000000000E-01   0.00000000000000E+00   0.00000000000000E+00   1.14162467021072E-06
      2.11546147896182E-17   1.14162467023187E-06  -1.25365346705332E-29   0.00000000000000E+00   0.00000000000000E+00
      0.00000000000000E+00   0.00000000000000E+00  -1.14162467015484E-06  -7.70375197310997E-17  -1.14162467023187E-06
     -4.64409734961873E-28
      3.80000000000000E-02
      5.70000000000000E-01   5.70000000000000E-01   0.00000000000000E+00   0.00000000000000E+00   1.14265647708230E-06
      2.09119910690603E-17   1.14265647710321E-06  -5.30886180536029E-30   0.00000000000000E+00   0.00000000000000E+00
      0.00000000000000E+00   0.00000000000000E+00  -1.14265647708836E-06  -1.48470365240217E-17  -1.14265647710321E-06
      4.03491641992817E-28
      3.90000000000000E-02
      5.85000000000000E-01   5.85000000000000E-01   0.00000000000000E+00   0.00000000000000E+00   1.14368203727901E-06
      2.08190041953577E-17   1.14368203729983E-06   1.22946041980588E-29   0.00000000000000E+00   0.00000000000000E+00
      0.00000000000000E+00   0.00000000000000E+00  -1.14368203736841E-06   6.85961316605789E-17  -1.14368203729982E-06
      5.74376811920391E-27
      4.00000000000000E-02
      6.00000000000000E-01   6.00000000000000E-01   0.00000000000000E+00   0.00000000000000E+00   1.14470155935578E-06
      2.05491469878826E-17   1.14470155937633E-06   6.69693789118220E-30   0.00000000000000E+00   0.00000000000000E+00
      0.00000000000000E+00   0.00000000000000E+00  -1.14470155936676E-06  -9.56525394489434E-18  -1.14470155937633E-06
     -4.14088196687196E-28
      4.10000000000000E-02
      6.15000000000000E-01   6.15000000000000E-01   0.00000000000000E+00   0.00000000000000E+00   1.14571542486548E-06
      2.06368499204438E-17   1.14571542488612E-06  -1.12845444754782E-29   0.00000000000000E+00   0.00000000000000E+00
      0.00000000000000E+00   0.00000000000000E+00  -1.14571542487478E-06  -1.13482973158983E-17  -1.14571542488613E-06
     -9.47690046776750E-28
      4.20000000000000E-02
      6.30000000000000E-01   6.30000000000000E-01   0.00000000000000E+00   0.00000000000000E+00   1.14672421085468E-06
      2.08585358706535E-17   1.14672421087554E-06  -7.79469741003483E-30   0.00000000000000E+00   0.00000000000000E+00
      0.00000000000000E+00   0.00000000000000E+00  -1.14672421085231E-06  -2.32360897207285E-17  -1.14672421087555E-06
      1.37019742390606E-27
      4.30000000000000E-02
      6.45000000000000E-01   6.45000000000000E-01   0.00000000000000E+00   0.00000000000000E+00   1.14772862361409E-06
      2.08020984054435E-17   1.14772862363489E-06  -8.96201193972385E-30   0.00000000000000E+00   0.00000000000000E+00
      0.00000000000000E+00   0.00000000000000E+00  -1.14772862365042E-06   1.55475021942551E-17  -1.14772862363488E-06
     -9.69908941368800E-27
      4.40000000000000E-02
      6.60000000000000E-01   6.60000000000000E-01   0.00000000000000E+00   0.00000000000000E+00   1.14872937626107E-06
      2.07499311482820E-17   1.14872937628182E-06   4.04175095577558E-30   0.00000000000000E+00   0.00000000000000E+00
      0.00000000000000E+00   0.00000000000000E+00  -1.14872937623612E-06  -4.56879674827355E-17  -1.14872937628181E-06
      1.96524961400411E-27
      4.50000000000000E-02
      6.75000000000000E-01   6.75000000000000E-01   0.00000000000000E+00   0.00000000000000E+00   1.14972705774096E-06
      2.10418203259924E-17   1.14972705776200E-06  -2.79732108798534E-30   0.00000000000000E+00   0.00000000000000E+00
      0.00000000000000E+00   0.00000000000000E+00  -1.14972705775724E-06  -4.75704295355018E-18  -1.14972705776200E-06
     -4.67259675927622E-27
      4.60000000000000E-02
      6.90000000000001E-01   6.90000000000001E-01   0.00000000000000E+00   0.00000000000000E+00   1.15072204733628E-06
      2.11809520708657E-17   1.15072204735746E-06   4.99737632204949E-30   0.00000000000000E+00   0.00000000000000E+00
      0.00000000000000E+00   0.00000000000000E+00  -1.15072204725130E-06  -1.06150411300485E-16  -1.15072204735745E-06
      2.45317499089050E-27
      4.70000000000000E-02
      7.05000000000001E-01   7.05000000000001E-01   0.00000000000000E+00   0.00000000000000E+00   1.15171450548932E-06
      2.13526390469895E-17   1.15171450551067E-06  -2.25086063328377E-29   0.00000000000000E+00   0.00000000000000E+00
      0.00000000000000E+00   0.00000000000000E+00  -1.15171450564847E-06   1.37790278493642E-16  -1.15171450551068E-06
     -4.79385231208039E-27
      4.80000000000000E-02
      7.20000000000001E-01   7.20000000000001E-01   0.00000000000000E+00   0.00000000000000E+00   1.15270444187528E-06
      2.15820443414700E-17   1.15270444189687E-06  -2.21668795404676E-30   0.00000000000000E+00   0.00000000000000E+00
      0.00000000000000E+00   0.00000000000000E+00  -1.15270444186953E-06  -2.73353268259612E-17  -1.15270444189687E-06
     -6.12780855120978E-27
      4.90000000000000E-02
      7.35000000000001E-01   7.35000000000001E-01   0.00000000000000E+00   0.00000000000000E+00   1.15369183274650E-06
      2.17890155342620E-17   1.15369183276829E-06   8.60365242737113E-31   0.00000000000000E+00   0.00000000000000E+00
      0.00000000000000E+00   0.00000000000000E+00  -1.15369183273473E-06  -3.35612017955665E-17  -1.15369183276829E-06
      1.21930054961432E-26
      5.00000000000000E-02
      7.50000000000001E-01   7.50000000000001E-01   0.00000000000000E+00   0.00000000000000E+00   1.15467674339195E-06
      2.20137344480552E-17   1.15467674341397E-06  -3.01203438230638E-30   0.00000000000000E+00   0.00000000000000E+00
      0.00000000000000E+00   0.00000000000000E+00  -1.15467674345087E-06   3.69103225858906E-17  -1.15467674341396E-06
      1.32737573027809E-26
      5.10000000000000E-02
      7.65000000000001E-01   7.65000000000001E-01   0.00000000000000E+00   0.00000000000000E+00   1.15565940991638E-06
      2.22804597285910E-17   1.15565940993866E-06  -7.80225773729965E-31   0.00000000000000E+00   0.00000000000000E+00
      0.00000000000000E+00   0.00000000000000E+00  -1.15565940999161E-06   5.29444634462273E-17  -1.15565940993866E-06
     -7.65230923046001E-27
      5.20000000000000E-02
      7.80000000000001E-01   7.80000000000001E-01   0.00000000000000E+00   0.00000000000000E+00   1.15664025389115E-06
      2.24361352303107E-17   1.15664025391359E-06   1.57632823471606E-29   0.00000000000000E+00   0.00000000000000E+00
      0.00000000000000E+00   0.00000000000000E+00  -1.15664025401068E-06   9.70668825518116E-17  -1.15664025391361E-06
     -1.03193023729234E-27
      5.30000000000000E-02
      7.95000000000001E-01   7.95000000000001E-01   0.00000000000000E+00   0.00000000000000E+00   1.15761983031736E-06
      2.25187842811552E-17   1.15761983033988E-06  -1.28858217901681E-29   0.00000000000000E+00   0.00000000000000E+00
      0.00000000000000E+00   0.00000000000000E+00  -1.15761983040690E-06   6.70117564838160E-17  -1.15761983033989E-06
      3.02335672841818E-27
      5.40000000000000E-02
      8.10000000000001E-01   8.10000000000001E-01   0.00000000000000E+00   0.00000000000000E+00   1.15859872786122E-06
      2.26972025881285E-17   1.15859872788392E-06  -1.30914626917714E-29   0.00000000000000E+00   0.00000000000000E+00
      0.00000000000000E+00   0.00000000000000E+00  -1.15859872806321E-06   1.79287492271583E-16  -1.15859872788393E-06
     -1.56425953309668E-26
      5.50000000000000E-02
      8.25000000000001E-01   8.25000000000001E-01   0.00000000000000E+00   0.00000000000000E+00   1.15957746516269E-06
      2.28497957120925E-17   1.15957746518554E-06  -1.17185072604791E-30   0.00000000000000E+00   0.00000000000000E+00
      0.00000000000000E+00   0.00000000000000E+00  -1.15957746524532E-06   5.97760133925607E-17  -1.15957746518555E-06
      1.07061491984100E-26
      5.60000000000000E-02
      8.40000000000001E-01   8.40000000000001E-01   0.00000000000000E+00   0.00000000000000E+00   1.16055641549694E-06
      2.29291768120126E-17   1.16055641551987E-06  -1.49543273298243E-30   0.00000000000000E+00   0.00000000000000E+00
      0.00000000000000E+00   0.00000000000000E+00  -1.16055641563025E-06   1.10380770396800E-16  -1.16055641551987E-06
     -2.89900446556633E-27
      5.70000000000000E-02
      8.55000000000001E-01   8.55000000000001E-01   0.00000000000000E+00   0.00000000000000E+00   1.16153578367763E-06
      2.29840892559597E-17   1.16153578370062E-06   1.25032692305680E-29   0.00000000000000E+00   0.00000000000000E+00
      0.00000000000000E+00   0.00000000000000E+00  -1.16153578370126E-06   6.55641548078117E-19  -1.16153578370061E-06
      1.82508477547134E-26
      5.80000000000000E-02
      8.70000000000001E-01   8.70000000000001E-01   0.00000000000000E+00   0.00000000000000E+00   1.16251564315720E-06
      2.29798654243271E-17   1.16251564318018E-06  -3.20240342283468E-29   0.00000000000000E+00   0.00000000000000E+00
      0.00000000000000E+00   0.00000000000000E+00  -1.16251564315213E-06  -2.80447906009356E-17  -1.16251564318017E-06
      2.06256856586166E-26
      5.90000000000000E-02
      8.85000000000001E-01   8.85000000000001E-01   0.00000000000000E+00   0.00000000000000E+00   1.16349601676381E-06
      2.30565102482140E-17   1.16349601678687E-06   2.34475989791290E-29   0.00000000000000E+00   0.00000000000000E+00
      0.00000000000000E+00   0.00000000000000E+00  -1.16349601689547E-06   1.08608349317673E-16  -1.16349601678686E-06
     -4.06559320383793E-27
      6.00000000000000E-02
      9.00000000000001E-01   9.00000000000001E-01   0.00000000000000E+00   0.00000000000000E+00   1.16447697240923E-06
      2.30605867824098E-17   1.16447697243229E-06  -2.23785687038827E-30   0.00000000000000E+00   0.00000000000000E+00
      0.00000000000000E+00   0.00000000000000E+00  -1.16447697248753E-06   5.52658844168097E-17  -1.16447697243226E-06
     -1.73464148764150E-27
      6.10000000000000E-02
      9.15000000000001E-01   9.15000000000001E-01   0.00000000000000E+00   0.00000000000000E+00   1.16545870085441E-06
      2.30216171595701E-17   1.16545870087743E-06  -1.53323436930656E-30   0.00000000000000E+00   0.00000000000000E+00
      0.00000000000000E+00   0.00000000000000E+00  -1.16545870088413E-06   6.70681723472020E-18  -1.16545870087742E-06
     -6.19632326101453E-28
      6.20000000000000E-02
      9.30000000000001E-01   9.30000000000001E-01   0.00000000000000E+00   0.00000000000000E+00   1.16644154771007E-06
      2.30180128952497E-17   1.16644154773309E-06  -7.04168881445823E-30   0.00000000000000E+00   0.00000000000000E+00
      0.00000000000000E+00   0.00000000000000E+00  -1.16644154782942E-06   9.63445859433167E-17  -1.16644154773308E-06
      1.84109089553024E-28
      6.30000000000000E-02
      9.45000000000001E-01   9.45000000000001E-01   0.00000000000000E+00   0.00000000000000E+00   1.16742599272194E-06
      2.30325864982492E-17   1.16742599274498E-06  -7.32142092325677E-30   0.00000000000000E+00   0.00000000000000E+00
      0.00000000000000E+00   0.00000000000000E+00  -1.16742599280125E-06   5.62773927919519E-17  -1.16742599274497E-06
      6.74168293206634E-27
      6.40000000000000E-02
      9.60000000000001E-01   9.60000000000001E-01   0.00000000000000E+00   0.00000000000000E+00   1.16841258593617E-06
      2.29356943523110E-17   1.16841258595911E-06   6.65611212395215E-30   0.00000000000000E+00   0.00000000000000E+00
      0.00000000000000E+00   0.00000000000000E+00  -1.16841258593727E-06  -2.18397243307806E-17  -1.16841258595911E-06
     -1.22429399456619E-26
      6.50000000000000E-02
      9.75000000000001E-01   9.75000000000001E-01   0.00000000000000E+00   0.00000000000000E+00   1.16940186091448E-06
      2.28827314054667E-17   1.16940186093736E-06  -2.75649532075528E-30   0.00000000000000E+00   0.00000000000000E+00
      0.00000000000000E+00   0.00000000000000E+00  -1.16940186104213E-06   1.04765719266159E-16  -1.16940186093737E-06
     -3.42868704200180E-27
      6.60000000000000E-02
      9.90000000000001E-01   9.90000000000001E-01   0.00000000000000E+00   0.00000000000000E+00   1.17039425670588E-06
      2.28834889544292E-17   1.17039425672877E-06  -8.49024751839875E-30   0.00000000000000E+00   0.00000000000000E+00
      0.00000000000000E+00   0.00000000000000E+00  -1.17039425678823E-06   5.94545812229336E-17  -1.17039425672878E-06
     -4.64777469280034E-27
      6.70000000000000E-02
      1.00500000000000E+00   1.00500000000000E+00   0.00000000000000E+00   0.00000000000000E+00   1.17139007126606E-06
      2.27821438625134E-17   1.17139007128884E-06  -1.38611040073306E-29   0.00000000000000E+00   0.00000000000000E+00
      0.00000000000000E+00   0.00000000000000E+00  -1.17139007140470E-06   1.15844792983080E-16  -1.17139007128886E-06
     -1.01432253750565E-26
      6.80000000000000E-02
      1.02000000000000E+00   1.02000000000000E+00   0.00000000000000E+00   0.00000000000000E+00   1.17238945937338E-06
      2.26985895602353E-17   1.17238945939608E-06  -5.03215382746768E-30   0.00000000000000E+00   0.00000000000000E+00
      0.00000000000000E+00   0.00000000000000E+00  -1.17238945943051E-06   3.44145182590198E-17  -1.17238945939609E-06
      5.46051592203087E-27
      6.90000000000000E-02