DF-ISE text

Info {
  version   = 1.0
  type      = xyplot
  datasets  = [
    "time"
    "ntype OuterVoltage" "ntype InnerVoltage" "ntype QuasiFermiPotential" "ntype DisplacementCurrent" "ntype eCurrent"
    "ntype hCurrent" "ntype TotalCurrent" "ntype Charge" "ptype OuterVoltage" "ptype InnerVoltage"
    "ptype QuasiFermiPotential" "ptype DisplacementCurrent" "ptype eCurrent" "ptype hCurrent" "ptype TotalCurrent"
    "ptype Charge" ]
  functions = [
    Time
    OuterVoltage InnerVoltage QuasiFermiPotential DisplacementCurrent eCurrent
    hCurrent TotalCurrent Charge OuterVoltage InnerVoltage
    QuasiFermiPotential DisplacementCurrent eCurrent hCurrent TotalCurrent
    Charge ]
}

Data {
      0.00000000000000E+00
      0.00000000000000E+00   0.00000000000000E+00   0.00000000000000E+00   0.00000000000000E+00   3.38544597645427E-07
     -3.38544597645601E-07  -1.74127982226347E-19   3.58771115132398E-14   0.00000000000000E+00   0.00000000000000E+00
      0.00000000000000E+00   0.00000000000000E+00   8.10001266606711E-07  -8.10001266606529E-07   1.81800950081498E-19
     -3.74867594382623E-14
      0.00000000000000E+00
      0.00000000000000E+00   0.00000000000000E+00   0.00000000000000E+00   0.00000000000000E+00   9.10849203760896E-07
     -3.38499225386068E-07   5.72349978374828E-07   3.58764238728125E-14   0.00000000000000E+00   0.00000000000000E+00
      0.00000000000000E+00   0.00000000000000E+00   1.29045800959542E-07  -7.01395779519538E-07  -5.72349978559996E-07
     -3.74860718000527E-14
      0.00000000000000E+00
      0.00000000000000E+00   0.00000000000000E+00   0.00000000000000E+00   0.00000000000000E+00   8.81248420811329E-07
      1.22051655242377E-20   8.81248420811342E-07   3.58600253516389E-14   0.00000000000000E+00   0.00000000000000E+00
      0.00000000000000E+00   0.00000000000000E+00  -8.81248420803182E-07  -8.14733174500461E-18  -8.81248420811329E-07
     -3.74696612517742E-14
      1.00000000000000E-03
      2.00000000000000E-03   2.00000000000000E-03   0.00000000000000E+00   0.00000000000000E+00   8.81479240562656E-07
      2.77104146859234E-21   8.81479240562658E-07   3.59405128203386E-14   0.00000000000000E+00   0.00000000000000E+00
      0.00000000000000E+00   0.00000000000000E+00  -8.81479240583495E-07   2.08594052383916E-17  -8.81479240562635E-07
     -3.75501487196722E-14
      2.00000000000000E-03
      4.00000000000000E-03   4.00000000000000E-03   0.00000000000000E+00   0.00000000000000E+00   8.81707042004408E-07
     -7.27318560015548E-20   8.81707042004335E-07   3.60209348569560E-14   0.00000000000000E+00   0.00000000000000E+00
      0.00000000000000E+00   0.00000000000000E+00  -8.81707041990379E-07  -1.39557441985360E-17  -8.81707042004335E-07
     -3.76305707554999E-14
      3.00000000000000E-03
      6.00000000000000E-03   6.00000000000000E-03   0.00000000000000E+00   0.00000000000000E+00   8.81931912434307E-07
     -7.97289567909171E-21   8.81931912434299E-07   3.61012935585334E-14   0.00000000000000E+00   0.00000000000000E+00
      0.00000000000000E+00   0.00000000000000E+00  -8.81931912425913E-07  -8.38044643654323E-18  -8.81931912434294E-07
     -3.77109294562996E-14
      4.00000000000000E-03
      8.00000000000000E-03   8.00000000000000E-03   0.00000000000000E+00   0.00000000000000E+00   8.82153934613682E-07
     -2.42372464343442E-21   8.82153934613679E-07   3.61815909200348E-14   0.00000000000000E+00   0.00000000000000E+00
      0.00000000000000E+00   0.00000000000000E+00  -8.82153934616505E-07   2.81616813167234E-18  -8.82153934613689E-07
     -3.77912268170309E-14
      5.00000000000000E-03
      1.00000000000000E-02   1.00000000000000E-02   0.00000000000000E+00   0.00000000000000E+00   8.82373187018852E-07
     -1.84356040816625E-20   8.82373187018833E-07   3.62618288392025E-14   0.00000000000000E+00   0.00000000000000E+00
      0.00000000000000E+00   0.00000000000000E+00  -8.82373187028648E-07   9.78921964947065E-18  -8.82373187018859E-07
     -3.78714647354356E-14
      6.00000000000000E-03
      1.20000000000000E-02   1.20000000000000E-02   0.00000000000000E+00   0.00000000000000E+00   8.82589744083936E-07
      1.76048114349728E-20   8.82589744083954E-07   3.63420091212711E-14   0.00000000000000E+00   0.00000000000000E+00
      0.00000000000000E+00   0.00000000000000E+00  -8.82589744091507E-07   7.54441324694268E-18  -8.82589744083963E-07
     -3.79516450167575E-14
      7.00000000000000E-03
      1.40000000000000E-02   1.40000000000000E-02   0.00000000000000E+00   0.00000000000000E+00   8.82803676435491E-07
     -1.56509264617228E-20   8.82803676435475E-07   3.64221334835254E-14   0.00000000000000E+00   0.00000000000000E+00
      0.00000000000000E+00   0.00000000000000E+00  -8.82803676445467E-07   1.00194507408133E-17  -8.82803676435448E-07
     -3.80317693782758E-14
      8.00000000000000E-03
      1.60000000000000E-02   1.60000000000000E-02   0.00000000000000E+00   0.00000000000000E+00   8.83015051119458E-07
     -9.38511491763472E-21   8.83015051119448E-07   3.65022035596988E-14   0.00000000000000E+00   0.00000000000000E+00
      0.00000000000000E+00   0.00000000000000E+00  -8.83015051108800E-07  -1.06321389085023E-17  -8.83015051119432E-07
     -3.81118394537189E-14
      9.00000000000000E-03
      1.80000000000000E-02   1.80000000000000E-02   0.00000000000000E+00   0.00000000000000E+00   8.83223931820366E-07
      1.55820031422891E-20   8.83223931820382E-07   3.65822209042048E-14   0.00000000000000E+00   0.00000000000000E+00
      0.00000000000000E+00   0.00000000000000E+00  -8.83223931840224E-07   1.98192987687663E-17  -8.83223931820405E-07
     -3.81918567975059E-14
      1.00000000000000E-02
      2.00000000000000E-02   2.00000000000000E-02   0.00000000000000E+00   0.00000000000000E+00   8.83430379072861E-07
      2.11186856234947E-20   8.83430379072882E-07   3.66621869961994E-14   0.00000000000000E+00   0.00000000000000E+00
      0.00000000000000E+00   0.00000000000000E+00  -8.83430379079697E-07   6.84575121758664E-18  -8.83430379072851E-07
     -3.82718228887880E-14
      1.10000000000000E-02
      2.20000000000000E-02   2.20000000000000E-02   0.00000000000000E+00   0.00000000000000E+00   8.83634450465620E-07
     -3.73345672863345E-20   8.83634450465583E-07   3.67421032434775E-14   0.00000000000000E+00   0.00000000000000E+00
      0.00000000000000E+00   0.00000000000000E+00  -8.83634450452675E-07  -1.29586839880092E-17  -8.83634450465633E-07
     -3.83517391353652E-14
      1.20000000000000E-02
      2.40000000000000E-02   2.40000000000000E-02   0.00000000000000E+00   0.00000000000000E+00   8.83836200837272E-07
      1.35417783790728E-20   8.83836200837285E-07   3.68219709861945E-14   0.00000000000000E+00   0.00000000000000E+00
      0.00000000000000E+00   0.00000000000000E+00  -8.83836200837935E-07   6.39488319748723E-19  -8.83836200837295E-07
     -3.84316068773859E-14
      1.30000000000000E-02
      2.60000000000000E-02   2.60000000000000E-02   0.00000000000000E+00   0.00000000000000E+00   8.84035682464234E-07
     -3.77471621231401E-21   8.84035682464230E-07   3.69017915004233E-14   0.00000000000000E+00   0.00000000000000E+00
      0.00000000000000E+00   0.00000000000000E+00  -8.84035682468820E-07   4.60599082401840E-18  -8.84035682464214E-07
     -3.85114273909330E-14
      1.40000000000000E-02
      2.80000000000000E-02   2.80000000000000E-02   0.00000000000000E+00   0.00000000000000E+00   8.84232945240172E-07
     -3.81818988294603E-21   8.84232945240168E-07   3.69815660015471E-14   0.00000000000000E+00   0.00000000000000E+00
      0.00000000000000E+00   0.00000000000000E+00  -8.84232945254871E-07   1.47123431963029E-17  -8.84232945240158E-07
     -3.85912018913824E-14
      1.50000000000000E-02
      3.00000000000000E-02   3.00000000000000E-02   0.00000000000000E+00   0.00000000000000E+00   8.84428036846735E-07
     -7.82897352724785E-21   8.84428036846727E-07   3.70612956474860E-14   0.00000000000000E+00   0.00000000000000E+00
      0.00000000000000E+00   0.00000000000000E+00  -8.84428036838535E-07  -8.18862862516835E-18  -8.84428036846724E-07
     -3.86709315366529E-14
      1.60000000000000E-02
      3.20000000000000E-02   3.20000000000000E-02   0.00000000000000E+00   0.00000000000000E+00   8.84621002915357E-07
     -1.45279016408623E-21   8.84621002915355E-07   3.71409815417704E-14   0.00000000000000E+00   0.00000000000000E+00
      0.00000000000000E+00   0.00000000000000E+00  -8.84621002924910E-07   9.55129938945641E-18  -8.84621002915359E-07
     -3.87506174302737E-14
      1.70000000000000E-02
      3.40000000000000E-02   3.40000000000000E-02   0.00000000000000E+00   0.00000000000000E+00   8.84811887179756E-07
      3.11935737810640E-20   8.84811887179787E-07   3.72206247364557E-14   0.00000000000000E+00   0.00000000000000E+00
      0.00000000000000E+00   0.00000000000000E+00  -8.84811887169988E-07  -9.79099204541625E-18  -8.84811887179779E-07
     -3.88302606243077E-14
      1.80000000000000E-02
      3.60000000000000E-02   3.60000000000000E-02   0.00000000000000E+00   0.00000000000000E+00   8.85000731619060E-07
      1.71098596444853E-20   8.85000731619078E-07   3.73002262348936E-14   0.00000000000000E+00   0.00000000000000E+00
      0.00000000000000E+00   0.00000000000000E+00  -8.85000731609418E-07  -9.64299355182613E-18  -8.85000731619061E-07
     -3.89098621220991E-14
      1.90000000000000E-02
      3.80000000000000E-02   3.80000000000000E-02   0.00000000000000E+00   0.00000000000000E+00   8.85187576591300E-07
     -4.06635433632709E-20   8.85187576591260E-07   3.73797869943561E-14   0.00000000000000E+00   0.00000000000000E+00
      0.00000000000000E+00   0.00000000000000E+00  -8.85187576601119E-07   9.88906073579436E-18  -8.85187576591230E-07
     -3.89894228809252E-14
      2.00000000000000E-02
      4.00000000000000E-02   4.00000000000000E-02   0.00000000000000E+00   0.00000000000000E+00   8.85372460957217E-07
      5.89401715220476E-20   8.85372460957275E-07   3.74593079285238E-14   0.00000000000000E+00   0.00000000000000E+00
      0.00000000000000E+00   0.00000000000000E+00  -8.85372460941918E-07  -1.53608769382613E-17  -8.85372460957279E-07
     -3.90689438144649E-14
      2.10000000000000E-02
      4.20000000000000E-02   4.20000000000000E-02   0.00000000000000E+00   0.00000000000000E+00   8.85555422194483E-07
      9.51492837823310E-21   8.85555422194493E-07   3.75387899098380E-14   0.00000000000000E+00   0.00000000000000E+00
      0.00000000000000E+00   0.00000000000000E+00  -8.85555422181837E-07  -1.27169197515320E-17  -8.85555422194554E-07
     -3.91484257951566E-14
      2.20000000000000E-02
      4.40000000000000E-02   4.40000000000000E-02   0.00000000000000E+00   0.00000000000000E+00   8.85736496502284E-07
      2.64062045669630E-21   8.85736496502286E-07   3.76182337717313E-14   0.00000000000000E+00   0.00000000000000E+00
      0.00000000000000E+00   0.00000000000000E+00  -8.85736496510646E-07   8.41080496290133E-18  -8.85736496502235E-07
     -3.92278696564338E-14
      2.30000000000000E-02
      4.60000000000000E-02   4.60000000000000E-02   0.00000000000000E+00   0.00000000000000E+00   8.85915718896632E-07
     -3.64106842797045E-20   8.85915718896595E-07   3.76976403107324E-14   0.00000000000000E+00   0.00000000000000E+00
      0.00000000000000E+00   0.00000000000000E+00  -8.85915718886595E-07  -1.00155781555859E-17  -8.85915718896610E-07
     -3.93072761948259E-14
      2.40000000000000E-02
      4.80000000000000E-02   4.80000000000000E-02   0.00000000000000E+00   0.00000000000000E+00   8.86093123296559E-07
     -1.76505127936962E-20   8.86093123296541E-07   3.77770102884575E-14   0.00000000000000E+00   0.00000000000000E+00
      0.00000000000000E+00   0.00000000000000E+00  -8.86093123294132E-07  -2.40923305737913E-18  -8.86093123296541E-07
     -3.93866461719467E-14
      2.50000000000000E-02
      5.00000000000000E-02   5.00000000000000E-02   0.00000000000000E+00   0.00000000000000E+00   8.86268742601630E-07
     -3.84741985093308E-21   8.86268742601626E-07   3.78563444334883E-14   0.00000000000000E+00   0.00000000000000E+00
      0.00000000000000E+00   0.00000000000000E+00  -8.86268742631213E-07   2.96176319427308E-17  -8.86268742601596E-07
     -3.94659803163856E-14
      2.60000000000000E-02
      5.20000000000000E-02   5.20000000000000E-02   0.00000000000000E+00   0.00000000000000E+00   8.86442608761173E-07
      8.06841624422261E-21   8.86442608761181E-07   3.79356434431502E-14   0.00000000000000E+00   0.00000000000000E+00
      0.00000000000000E+00   0.00000000000000E+00  -8.86442608745989E-07  -1.51973194007961E-17  -8.86442608761186E-07
     -3.95452793254570E-14
      2.70000000000000E-02
      5.40000000000000E-02   5.40000000000000E-02   0.00000000000000E+00   0.00000000000000E+00   8.86614752835752E-07
     -6.60826795886481E-21   8.86614752835745E-07   3.80149079851861E-14   0.00000000000000E+00   0.00000000000000E+00
      0.00000000000000E+00   0.00000000000000E+00  -8.86614752811976E-07  -2.37583401188213E-17  -8.86614752835735E-07
     -3.96245438669148E-14
      2.80000000000000E-02
      5.60000000000000E-02   5.60000000000000E-02   0.00000000000000E+00   0.00000000000000E+00   8.86785205051390E-07
     -3.19376216035889E-21   8.86785205051387E-07   3.80941386993356E-14   0.00000000000000E+00   0.00000000000000E+00
      0.00000000000000E+00   0.00000000000000E+00  -8.86785205049425E-07  -1.99033271975204E-18  -8.86785205051415E-07
     -3.97037745804828E-14
      2.90000000000000E-02
      5.80000000000000E-02   5.80000000000000E-02   0.00000000000000E+00   0.00000000000000E+00   8.86953994847180E-07
      1.02068618005594E-21   8.86953994847181E-07   3.81733361988299E-14   0.00000000000000E+00   0.00000000000000E+00
      0.00000000000000E+00   0.00000000000000E+00  -8.86953994840181E-07  -7.01941645936446E-18  -8.86953994847200E-07
     -3.97829720794109E-14
      3.00000000000000E-02
      6.00000000000000E-02   6.00000000000000E-02   0.00000000000000E+00   0.00000000000000E+00   8.87121150916815E-07
      3.73104002458278E-21   8.87121150916819E-07   3.82525010717953E-14   0.00000000000000E+00   0.00000000000000E+00
      0.00000000000000E+00   0.00000000000000E+00  -8.87121150923779E-07   6.95085934967971E-18  -8.87121150916828E-07
     -3.98621369518145E-14
      3.10000000000000E-02
      6.20000000000000E-02   6.20000000000000E-02   0.00000000000000E+00   0.00000000000000E+00   8.87286701244738E-07
     -2.22998328518306E-21   8.87286701244736E-07   3.83316338825801E-14   0.00000000000000E+00   0.00000000000000E+00
      0.00000000000000E+00   0.00000000000000E+00  -8.87286701236760E-07  -7.97567141827797E-18  -8.87286701244736E-07
     -3.99412697620420E-14
      3.20000000000000E-02
      6.40000000000000E-02   6.40000000000000E-02   0.00000000000000E+00   0.00000000000000E+00   8.87450673137507E-07
     -4.21008747221168E-20   8.87450673137465E-07   3.84107351730034E-14   0.00000000000000E+00   0.00000000000000E+00
      0.00000000000000E+00   0.00000000000000E+00  -8.87450673128116E-07  -9.38877047798178E-18  -8.87450673137505E-07
     -4.00203710519142E-14
      3.30000000000000E-02
      6.60000000000000E-02   6.60000000000000E-02   0.00000000000000E+00   0.00000000000000E+00   8.87613093251159E-07
     -3.01184105013186E-20   8.87613093251129E-07   3.84898054635350E-14   0.00000000000000E+00   0.00000000000000E+00
      0.00000000000000E+00   0.00000000000000E+00  -8.87613093231237E-07  -1.99077045203259E-17  -8.87613093251145E-07
     -4.00994413418996E-14
      3.40000000000000E-02
      6.80000000000000E-02   6.80000000000000E-02   0.00000000000000E+00   0.00000000000000E+00   8.87773987617266E-07
     -3.76661552834532E-21   8.87773987617263E-07   3.85688452544056E-14   0.00000000000000E+00   0.00000000000000E+00
      0.00000000000000E+00   0.00000000000000E+00  -8.87773987614370E-07  -2.87991699361562E-18  -8.87773987617250E-07
     -4.01784811322287E-14
      3.50000000000000E-02
      7.00000000000000E-02   7.00000000000000E-02   0.00000000000000E+00   0.00000000000000E+00   8.87933381948235E-07
      2.97382184003877E-20   8.87933381948265E-07   3.86478550266460E-14   0.00000000000000E+00   0.00000000000000E+00
      0.00000000000000E+00   0.00000000000000E+00  -8.87933381949531E-07   1.24213352940210E-18  -8.87933381948289E-07
     -4.02574909039387E-14
      3.60000000000000E-02
      7.20000000000001E-02   7.20000000000001E-02   0.00000000000000E+00   0.00000000000000E+00   8.88091300820822E-07
     -3.16600381662616E-20   8.88091300820790E-07   3.87268352430920E-14   0.00000000000000E+00   0.00000000000000E+00
      0.00000000000000E+00   0.00000000000000E+00  -8.88091300828647E-07   7.85552920740412E-18  -8.88091300820792E-07
     -4.03364711198574E-14
      3.70000000000000E-02
      7.40000000000001E-02   7.40000000000001E-02   0.00000000000000E+00   0.00000000000000E+00   8.88247768445209E-07
      3.01628967574467E-20   8.88247768445239E-07   3.88057863492985E-14   0.00000000000000E+00   0.00000000000000E+00
      0.00000000000000E+00   0.00000000000000E+00  -8.88247768445899E-07   6.34572821160251E-19  -8.88247768445264E-07
     -4.04154222255376E-14
      3.80000000000000E-02
      7.60000000000001E-02   7.60000000000001E-02   0.00000000000000E+00   0.00000000000000E+00   8.88402808514331E-07
      6.62953225428264E-21   8.88402808514337E-07   3.88847087744186E-14   0.00000000000000E+00   0.00000000000000E+00
      0.00000000000000E+00   0.00000000000000E+00  -8.88402808513067E-07  -1.29374230308249E-18  -8.88402808514361E-07
     -4.04943446501447E-14
      3.90000000000000E-02
      7.80000000000001E-02   7.80000000000001E-02   0.00000000000000E+00   0.00000000000000E+00   8.88556444172015E-07
     -2.39996263712624E-21   8.88556444172012E-07   3.89636029320302E-14   0.00000000000000E+00   0.00000000000000E+00
      0.00000000000000E+00   0.00000000000000E+00  -8.88556444171161E-07  -8.52343333206991E-19  -8.88556444172013E-07
     -4.05732388072447E-14
      4.00000000000000E-02
      8.00000000000001E-02   8.00000000000001E-02   0.00000000000000E+00   0.00000000000000E+00   8.88708698023998E-07
      9.66438599745558E-21   8.88708698024007E-07   3.90424692209158E-14   0.00000000000000E+00   0.00000000000000E+00
      0.00000000000000E+00   0.00000000000000E+00  -8.88708698024428E-07   3.97360963781663E-19  -8.88708698024031E-07
     -4.06521050956249E-14
      4.10000000000000E-02
      8.20000000000001E-02   8.20000000000001E-02   0.00000000000000E+00   0.00000000000000E+00   8.88859592148173E-07
     -1.12770971642239E-20   8.88859592148161E-07   3.91213080257945E-14   0.00000000000000E+00   0.00000000000000E+00
      0.00000000000000E+00   0.00000000000000E+00  -8.88859592134121E-07  -1.40551618835728E-17  -8.88859592148177E-07
     -4.07309439000043E-14
      4.20000000000000E-02
      8.40000000000001E-02   8.40000000000001E-02   0.00000000000000E+00   0.00000000000000E+00   8.89009148104257E-07
      1.59329652752330E-20   8.89009148104273E-07   3.92001197180146E-14   0.00000000000000E+00   0.00000000000000E+00
      0.00000000000000E+00   0.00000000000000E+00  -8.89009148089361E-07  -1.49491245953836E-17  -8.89009148104310E-07
     -4.08097555917278E-14
      4.30000000000000E-02
      8.60000000000001E-02   8.60000000000001E-02   0.00000000000000E+00   0.00000000000000E+00   8.89157386943047E-07
      1.50179930209686E-21   8.89157386943048E-07   3.92789046562074E-14   0.00000000000000E+00   0.00000000000000E+00
      0.00000000000000E+00   0.00000000000000E+00  -8.89157386957219E-07   1.41651601154837E-17  -8.89157386943053E-07
     -4.08885405294298E-14
      4.40000000000000E-02
      8.80000000000001E-02   8.80000000000001E-02   0.00000000000000E+00   0.00000000000000E+00   8.89304329215557E-07
      4.37976979907601E-21   8.89304329215561E-07   3.93576631868998E-14   0.00000000000000E+00   0.00000000000000E+00
      0.00000000000000E+00   0.00000000000000E+00  -8.89304329220903E-07   5.35526531181020E-18  -8.89304329215548E-07
     -4.09672990596347E-14
      4.50000000000000E-02
      9.00000000000001E-02   9.00000000000001E-02   0.00000000000000E+00   0.00000000000000E+00   8.89449994981989E-07
     -3.56172897906702E-20   8.89449994981953E-07   3.94363956450966E-14   0.00000000000000E+00   0.00000000000000E+00
      0.00000000000000E+00   0.00000000000000E+00  -8.89449994979422E-07  -2.51143059435385E-18  -8.89449994981934E-07
     -4.10460315173502E-14
      4.60000000000000E-02
      9.20000000000001E-02   9.20000000000001E-02   0.00000000000000E+00   0.00000000000000E+00   8.89594403820804E-07
     -1.77651374718532E-20   8.89594403820786E-07   3.95151023548280E-14   0.00000000000000E+00   0.00000000000000E+00
      0.00000000000000E+00   0.00000000000000E+00  -8.89594403831646E-07   1.08653002874764E-17  -8.89594403820781E-07
     -4.11247382266073E-14
      4.70000000000000E-02
      9.40000000000001E-02   9.40000000000001E-02   0.00000000000000E+00   0.00000000000000E+00   8.89737574837739E-07
     -1.41577678891926E-20   8.89737574837724E-07   3.95937836296661E-14   0.00000000000000E+00   0.00000000000000E+00
      0.00000000000000E+00   0.00000000000000E+00  -8.89737574832158E-07  -5.55142184240644E-18  -8.89737574837710E-07
     -4.12034195009728E-14
      4.80000000000000E-02
      9.60000000000001E-02   9.60000000000001E-02   0.00000000000000E+00   0.00000000000000E+00   8.89879526675181E-07
      2.52910779129720E-20   8.89879526675206E-07   3.96724397732114E-14   0.00000000000000E+00   0.00000000000000E+00
      0.00000000000000E+00   0.00000000000000E+00  -8.89879526656469E-07  -1.87435791956230E-17  -8.89879526675212E-07
     -4.12820756440520E-14
      4.90000000000000E-02
      9.80000000000001E-02   9.80000000000001E-02   0.00000000000000E+00   0.00000000000000E+00   8.90020277521481E-07
     -3.59528606240735E-20   8.90020277521445E-07   3.97510710795565E-14   0.00000000000000E+00   0.00000000000000E+00
      0.00000000000000E+00   0.00000000000000E+00  -8.90020277524891E-07   3.41397908235924E-18  -8.90020277521477E-07
     -4.13607069499376E-14
      5.00000000000000E-02
      1.00000000000000E-01   1.00000000000000E-01   0.00000000000000E+00   0.00000000000000E+00   8.90159845120639E-07
      6.83265690479774E-21   8.90159845120646E-07   3.98296778337180E-14   0.00000000000000E+00   0.00000000000000E+00
      0.00000000000000E+00   0.00000000000000E+00  -8.90159845144660E-07   2.39850194336282E-17  -8.90159845120675E-07
     -4.14393137036387E-14
      5.10000000000000E-02
      1.02000000000000E-01   1.02000000000000E-01   0.00000000000000E+00   0.00000000000000E+00   8.90298246782052E-07
      1.68512453087846E-20   8.90298246782069E-07   3.99082603120485E-14   0.00000000000000E+00   0.00000000000000E+00
      0.00000000000000E+00   0.00000000000000E+00  -8.90298246782704E-07   6.55259919049235E-19  -8.90298246782049E-07
     -4.15178961815163E-14
      5.20000000000000E-02
      1.04000000000000E-01   1.04000000000000E-01   0.00000000000000E+00   0.00000000000000E+00   8.90435499390508E-07
      2.10840551995285E-20   8.90435499390529E-07   3.99868187826256E-14   0.00000000000000E+00   0.00000000000000E+00
      0.00000000000000E+00   0.00000000000000E+00  -8.90435499396639E-07   6.12825033798952E-18  -8.90435499390511E-07
     -4.15964546516481E-14
      5.30000000000000E-02
      1.06000000000000E-01   1.06000000000000E-01   0.00000000000000E+00   0.00000000000000E+00   8.90571619416300E-07
      1.99078358872736E-20   8.90571619416320E-07   4.00653535056182E-14   0.00000000000000E+00   0.00000000000000E+00
      0.00000000000000E+00   0.00000000000000E+00  -8.90571619403450E-07  -1.28928206064950E-17  -8.90571619416343E-07
     -4.16749893741965E-14
      5.40000000000000E-02
      1.08000000000000E-01   1.08000000000000E-01   0.00000000000000E+00   0.00000000000000E+00   8.90706622925532E-07
     -4.17154171766063E-20   8.90706622925491E-07   4.01438647336331E-14   0.00000000000000E+00   0.00000000000000E+00
      0.00000000000000E+00   0.00000000000000E+00  -8.90706622914210E-07  -1.12715429244110E-17  -8.90706622925481E-07
     -4.17535006017697E-14
      5.50000000000000E-02
      1.10000000000000E-01   1.10000000000000E-01   0.00000000000000E+00   0.00000000000000E+00   8.90840525590438E-07
      7.30877460505796E-21   8.90840525590445E-07   4.02223527120443E-14   0.00000000000000E+00   0.00000000000000E+00
      0.00000000000000E+00   0.00000000000000E+00  -8.90840525587407E-07  -3.02055990784010E-18  -8.90840525590427E-07
     -4.18319885797468E-14
      5.60000000000000E-02
      1.12000000000000E-01   1.12000000000000E-01   0.00000000000000E+00   0.00000000000000E+00   8.90973342699888E-07
      2.91057574995316E-21   8.90973342699891E-07   4.03008176793035E-14   0.00000000000000E+00   0.00000000000000E+00
      0.00000000000000E+00   0.00000000000000E+00  -8.90973342692568E-07  -7.31179913585090E-18  -8.90973342699880E-07
     -4.19104535465746E-14
      5.70000000000000E-02
      1.14000000000000E-01   1.14000000000000E-01   0.00000000000000E+00   0.00000000000000E+00   8.91105089169863E-07
      5.57198796216913E-21   8.91105089169868E-07   4.03792598672339E-14   0.00000000000000E+00   0.00000000000000E+00
      0.00000000000000E+00   0.00000000000000E+00  -8.91105089159593E-07  -1.02876402127275E-17  -8.91105089169881E-07
     -4.19888957340769E-14
      5.80000000000000E-02
      1.16000000000000E-01   1.16000000000000E-01   0.00000000000000E+00   0.00000000000000E+00   8.91235779553965E-07
     -6.62095903041577E-22   8.91235779553965E-07   4.04576795013083E-14   0.00000000000000E+00   0.00000000000000E+00
      0.00000000000000E+00   0.00000000000000E+00  -8.91235779541843E-07  -1.21433447492313E-17  -8.91235779553986E-07
     -4.20673153677289E-14
      5.90000000000000E-02
      1.18000000000000E-01   1.18000000000000E-01   0.00000000000000E+00   0.00000000000000E+00   8.91365428053930E-07
     -2.22679026558540E-20   8.91365428053908E-07   4.05360768009133E-14   0.00000000000000E+00   0.00000000000000E+00
      0.00000000000000E+00   0.00000000000000E+00  -8.91365428053798E-07  -1.22393674024411E-19  -8.91365428053921E-07
     -4.21457126669153E-14
      6.00000000000000E-02
      1.20000000000000E-01   1.20000000000000E-01   0.00000000000000E+00   0.00000000000000E+00   8.91494048530039E-07
     -9.62530019730661E-21   8.91494048530029E-07   4.06144519795996E-14   0.00000000000000E+00   0.00000000000000E+00
      0.00000000000000E+00   0.00000000000000E+00  -8.91494048513574E-07  -1.64655167530747E-17  -8.91494048530039E-07
     -4.22240878451876E-14
      6.10000000000000E-02
      1.22000000000000E-01   1.22000000000000E-01   0.00000000000000E+00   0.00000000000000E+00   8.91621654511484E-07
      2.14793685772010E-20   8.91621654511506E-07   4.06928052453187E-14   0.00000000000000E+00   0.00000000000000E+00
      0.00000000000000E+00   0.00000000000000E+00  -8.91621654488244E-07  -2.32743031167792E-17  -8.91621654511518E-07
     -4.23024411104977E-14
      6.20000000000000E-02
      1.24000000000000E-01   1.24000000000000E-01   0.00000000000000E+00   0.00000000000000E+00   8.91748259206647E-07
      6.98683992300196E-22   8.91748259206648E-07   4.07711368006468E-14   0.00000000000000E+00   0.00000000000000E+00
      0.00000000000000E+00   0.00000000000000E+00  -8.91748259230465E-07   2.37950888107609E-17  -8.91748259206670E-07
     -4.23807726654165E-14
      6.30000000000000E-02
      1.26000000000000E-01   1.26000000000000E-01   0.00000000000000E+00   0.00000000000000E+00   8.91873875513156E-07
      1.23812878948571E-20   8.91873875513169E-07   4.08494468429999E-14   0.00000000000000E+00   0.00000000000000E+00
      0.00000000000000E+00   0.00000000000000E+00  -8.91873875507947E-07  -5.26309607515785E-18  -8.91873875513210E-07
     -4.24590827073642E-14
      6.40000000000000E-02
      1.28000000000000E-01   1.28000000000000E-01   0.00000000000000E+00   0.00000000000000E+00   8.91998516027890E-07
     -1.08568741833476E-20   8.91998516027879E-07   4.09277355648350E-14   0.00000000000000E+00   0.00000000000000E+00
      0.00000000000000E+00   0.00000000000000E+00  -8.91998516045003E-07   1.71189277184409E-17  -8.91998516027884E-07
     -4.25373714288033E-14
      6.50000000000000E-02
      1.30000000000000E-01   1.30000000000000E-01   0.00000000000000E+00   0.00000000000000E+00   8.92122193056740E-07
      5.95312514289636E-21   8.92122193056746E-07   4.10060031538425E-14   0.00000000000000E+00   0.00000000000000E+00
      0.00000000000000E+00   0.00000000000000E+00  -8.92122193069916E-07   1.31593861226102E-17  -8.92122193056757E-07
     -4.26156390174144E-14
      6.60000000000000E-02
      1.32000000000000E-01   1.32000000000000E-01   0.00000000000000E+00   0.00000000000000E+00   8.92244918624188E-07
     -1.87607115316062E-20   8.92244918624170E-07   4.10842497931293E-14   0.00000000000000E+00   0.00000000000000E+00
      0.00000000000000E+00   0.00000000000000E+00  -8.92244918616309E-07  -7.88102973556537E-18  -8.92244918624190E-07
     -4.26938856563098E-14
      6.70000000000000E-02
      1.34000000000000E-01   1.34000000000000E-01   0.00000000000000E+00   0.00000000000000E+00   8.92366704482672E-07
      2.51566740647914E-21   8.92366704482674E-07   4.11624756613920E-14   0.00000000000000E+00   0.00000000000000E+00
      0.00000000000000E+00   0.00000000000000E+00  -8.92366704497844E-07   1.51820726167150E-17  -8.92366704482662E-07
     -4.27721115241816E-14
      6.80000000000000E-02
      1.36000000000000E-01   1.36000000000000E-01   0.00000000000000E+00   0.00000000000000E+00   8.92487562121717E-07
     -1.13273214048298E-20   8.92487562121706E-07   4.12406809330815E-14   0.00000000000000E+00   0.00000000000000E+00
      0.00000000000000E+00   0.00000000000000E+00  -8.92487562134366E-07   1.26882930857527E-17  -8.92487562121677E-07
     -4.28503167954887E-14
      6.90000000000000E-02