DF-ISE text

Info {
  version   = 1.0
  type      = xyplot
  datasets  = [
    "time"
    "ntype OuterVoltage" "ntype InnerVoltage" "ntype QuasiFermiPotential" "ntype DisplacementCurrent" "ntype eCurrent"
    "ntype hCurrent" "ntype TotalCurrent" "ntype Charge" "ptype OuterVoltage" "ptype InnerVoltage"
    "ptype QuasiFermiPotential" "ptype DisplacementCurrent" "ptype eCurrent" "ptype hCurrent" "ptype TotalCurrent"
    "ptype Charge" ]
  functions = [
    Time
    OuterVoltage InnerVoltage QuasiFermiPotential DisplacementCurrent eCurrent
    hCurrent TotalCurrent Charge OuterVoltage InnerVoltage
    QuasiFermiPotential DisplacementCurrent eCurrent hCurrent TotalCurrent
    Charge ]
}

Data {
      0.00000000000000E+00
      0.00000000000000E+00   0.00000000000000E+00   0.00000000000000E+00   0.00000000000000E+00   2.38307460645407E-06
     -2.38307460645407E-06  -1.10601338452622E-21   9.61368062516040E-14   0.00000000000000E+00   0.00000000000000E+00
      0.00000000000000E+00   0.00000000000000E+00   7.50287380859397E-06  -7.50287380859402E-06  -4.42405353810489E-20
     -9.82202150079836E-14
      0.00000000000000E+00
      0.00000000000000E+00   0.00000000000000E+00   0.00000000000000E+00   0.00000000000000E+00   7.58929075032599E-06
     -2.38303089147969E-06   5.20625985884630E-06   9.61362937294968E-14   0.00000000000000E+00   0.00000000000000E+00
      0.00000000000000E+00   0.00000000000000E+00   1.29085421953213E-06  -6.49711408291941E-06  -5.20625986338728E-06
     -9.82197025061372E-14
      0.00000000000000E+00
      0.00000000000000E+00   0.00000000000000E+00   0.00000000000000E+00   0.00000000000000E+00   7.02327179582853E-06
      1.42596339900990E-20   7.02327179582855E-06   9.57808465199521E-14   0.00000000000000E+00   0.00000000000000E+00
      0.00000000000000E+00   0.00000000000000E+00  -7.02327179581321E-06  -1.53690813115154E-17  -7.02327179582858E-06
     -9.78640867204777E-14
      1.00000000000000E-03
      1.50000000000000E-02   1.50000000000000E-02   0.00000000000000E+00   0.00000000000000E+00   7.03283936565486E-06
     -1.13664583472969E-16   7.03283936554119E-06   9.73863224391402E-14   0.00000000000000E+00   0.00000000000000E+00
      0.00000000000000E+00   0.00000000000000E+00  -7.03283936573128E-06   1.90110508077138E-16  -7.03283936554117E-06
     -9.94695623253414E-14
      2.00000000000000E-03
      3.00000000000000E-02   3.00000000000000E-02   0.00000000000000E+00   0.00000000000000E+00   7.04221376424457E-06
      1.03151766399550E-16   7.04221376434773E-06   9.89730131273846E-14   0.00000000000000E+00   0.00000000000000E+00
      0.00000000000000E+00   0.00000000000000E+00  -7.04221376440511E-06   5.73610863084381E-17  -7.04221376434775E-06
     -1.01056252705958E-13
      3.00000000000000E-03
      4.50000000000000E-02   4.50000000000000E-02   0.00000000000000E+00   0.00000000000000E+00   7.05143257493695E-06
      1.02954213129446E-16   7.05143257503991E-06   1.00541587210543E-13   0.00000000000000E+00   0.00000000000000E+00
      0.00000000000000E+00   0.00000000000000E+00  -7.05143257510617E-06   6.62272999193616E-17  -7.05143257503995E-06
     -1.02624826487014E-13
      4.00000000000000E-03
      6.00000000000000E-02   6.00000000000000E-02   0.00000000000000E+00   0.00000000000000E+00   7.06052351383392E-06
      9.73067402938283E-17   7.06052351393123E-06   1.02092672133436E-13   0.00000000000000E+00   0.00000000000000E+00
      0.00000000000000E+00   0.00000000000000E+00  -7.06052351397008E-06   3.89067963177973E-17  -7.06052351393117E-06
     -1.04175911112456E-13
      5.00000000000000E-03
      7.50000000000000E-02   7.50000000000000E-02   0.00000000000000E+00   0.00000000000000E+00   7.06950678230467E-06
      9.02048406859402E-17   7.06950678239487E-06   1.03626857521010E-13   0.00000000000000E+00   0.00000000000000E+00
      0.00000000000000E+00   0.00000000000000E+00  -7.06950678240006E-06   5.22167309934765E-18  -7.06950678239484E-06
     -1.05710096206592E-13
      6.00000000000000E-03
      9.00000000000000E-02   9.00000000000000E-02   0.00000000000000E+00   0.00000000000000E+00   7.07839673290848E-06
      8.36804072455130E-17   7.07839673299216E-06   1.05144698222127E-13   0.00000000000000E+00   0.00000000000000E+00
      0.00000000000000E+00   0.00000000000000E+00  -7.07839673299583E-06   3.71588479546965E-18  -7.07839673299211E-06
     -1.07227936617825E-13
      7.00000000000000E-03
      1.05000000000000E-01   1.05000000000000E-01   0.00000000000000E+00   0.00000000000000E+00   7.08720329748276E-06
      7.83414127757884E-17   7.08720329756110E-06   1.06646717053207E-13   0.00000000000000E+00   0.00000000000000E+00
      0.00000000000000E+00   0.00000000000000E+00  -7.08720329759066E-06   2.94472611984097E-17  -7.08720329756121E-06
     -1.08729955162256E-13
      8.00000000000000E-03
      1.20000000000000E-01   1.20000000000000E-01   0.00000000000000E+00   0.00000000000000E+00   7.09593338388073E-06
      7.40938396585343E-17   7.09593338395482E-06   1.08133407267128E-13   0.00000000000000E+00   0.00000000000000E+00
      0.00000000000000E+00   0.00000000000000E+00  -7.09593338399019E-06   3.54149879158593E-17  -7.09593338395478E-06
     -1.10216645092534E-13
      9.00000000000000E-03
      1.35000000000000E-01   1.35000000000000E-01   0.00000000000000E+00   0.00000000000000E+00   7.10459219059993E-06
      7.07146501419040E-17   7.10459219067064E-06   1.09605234781271E-13   0.00000000000000E+00   0.00000000000000E+00
      0.00000000000000E+00   0.00000000000000E+00  -7.10459219072140E-06   5.07959120536061E-17  -7.10459219067060E-06
     -1.11688472325874E-13
      1.00000000000000E-02
      1.50000000000000E-01   1.50000000000000E-01   0.00000000000000E+00   0.00000000000000E+00   7.11318424292067E-06
      6.71576597929358E-17   7.11318424298783E-06   1.11062640201580E-13   0.00000000000000E+00   0.00000000000000E+00
      0.00000000000000E+00   0.00000000000000E+00  -7.11318424299518E-06   7.36122851373981E-18  -7.11318424298782E-06
     -1.13145877468065E-13
      1.10000000000000E-02
      1.65000000000000E-01   1.65000000000000E-01   0.00000000000000E+00   0.00000000000000E+00   7.12171392886011E-06
      6.54703040636696E-17   7.12171392892558E-06   1.12506040676119E-13   0.00000000000000E+00   0.00000000000000E+00
      0.00000000000000E+00   0.00000000000000E+00  -7.12171392891323E-06  -1.23094453739024E-17  -7.12171392892554E-06
     -1.14589277667031E-13
      1.20000000000000E-02
      1.80000000000000E-01   1.80000000000000E-01   0.00000000000000E+00   0.00000000000000E+00   7.13018555266647E-06
      6.46219313126310E-17   7.13018555273109E-06   1.13935831598769E-13   0.00000000000000E+00   0.00000000000000E+00
      0.00000000000000E+00   0.00000000000000E+00  -7.13018555272971E-06  -1.25625548103516E-18  -7.13018555273097E-06
     -1.16019068316501E-13
      1.30000000000000E-02
      1.95000000000000E-01   1.95000000000000E-01   0.00000000000000E+00   0.00000000000000E+00   7.13860310343262E-06
      6.43636744871161E-17   7.13860310349699E-06   1.15352388170904E-13   0.00000000000000E+00   0.00000000000000E+00
      0.00000000000000E+00   0.00000000000000E+00  -7.13860310349112E-06  -5.93150579209356E-18  -7.13860310349705E-06
     -1.17435624617716E-13
      1.40000000000000E-02
      2.10000000000000E-01   2.10000000000000E-01   0.00000000000000E+00   0.00000000000000E+00   7.14696991024681E-06
      6.42693468827110E-17   7.14696991031108E-06   1.16756066829748E-13   0.00000000000000E+00   0.00000000000000E+00
      0.00000000000000E+00   0.00000000000000E+00  -7.14696991032497E-06   1.38539895007388E-17  -7.14696991031112E-06
     -1.18839303007784E-13
      1.50000000000000E-02
      2.25000000000000E-01   2.25000000000000E-01   0.00000000000000E+00   0.00000000000000E+00   7.15528845994568E-06
      6.40357366581937E-17   7.15528846000971E-06   1.18147206545460E-13   0.00000000000000E+00   0.00000000000000E+00
      0.00000000000000E+00   0.00000000000000E+00  -7.15528845997657E-06  -3.31410571816015E-17  -7.15528846000971E-06
     -1.20230442456771E-13
      1.60000000000000E-02
      2.40000000000000E-01   2.40000000000000E-01   0.00000000000000E+00   0.00000000000000E+00   7.16356048375061E-06
      6.32676006418195E-17   7.16356048381388E-06   1.19526129995476E-13   0.00000000000000E+00   0.00000000000000E+00
      0.00000000000000E+00   0.00000000000000E+00  -7.16356048382755E-06   1.36298006438919E-17  -7.16356048381392E-06
     -1.21609365642053E-13
      1.70000000000000E-02
      2.55000000000000E-01   2.55000000000000E-01   0.00000000000000E+00   0.00000000000000E+00   7.17178723736719E-06
      6.20382948472897E-17   7.17178723742923E-06   1.20893144631424E-13   0.00000000000000E+00   0.00000000000000E+00
      0.00000000000000E+00   0.00000000000000E+00  -7.17178723740365E-06  -2.55793152101162E-17  -7.17178723742923E-06
     -1.22976380015198E-13
      1.80000000000000E-02
      2.70000000000000E-01   2.70000000000000E-01   0.00000000000000E+00   0.00000000000000E+00   7.17996985788259E-06
      6.05414639646936E-17   7.17996985794313E-06   1.22248543654112E-13   0.00000000000000E+00   0.00000000000000E+00
      0.00000000000000E+00   0.00000000000000E+00  -7.17996985791445E-06  -2.87200677752866E-17  -7.17996985794317E-06
     -1.24331778776973E-13
      1.90000000000000E-02
      2.85000000000000E-01   2.85000000000000E-01   0.00000000000000E+00   0.00000000000000E+00   7.18810961987526E-06
      5.90670131117207E-17   7.18810961993433E-06   1.23592606913406E-13   0.00000000000000E+00   0.00000000000000E+00
      0.00000000000000E+00   0.00000000000000E+00  -7.18810961994241E-06   7.98781495723503E-18  -7.18810961993442E-06
     -1.25675841777194E-13
      2.00000000000000E-02
      3.00000000000000E-01   3.00000000000000E-01   0.00000000000000E+00   0.00000000000000E+00   7.19620800627358E-06
      5.75124491945253E-17   7.19620800633110E-06   1.24925601744373E-13   0.00000000000000E+00   0.00000000000000E+00
      0.00000000000000E+00   0.00000000000000E+00  -7.19620800636477E-06   3.36979427184943E-17  -7.19620800633108E-06
     -1.27008836350867E-13
      2.10000000000000E-02
      3.15000000000000E-01   3.15000000000000E-01   0.00000000000000E+00   0.00000000000000E+00   7.20426661359117E-06
      5.63380741379873E-17   7.20426661364751E-06   1.26247783745504E-13   0.00000000000000E+00   0.00000000000000E+00
      0.00000000000000E+00   0.00000000000000E+00  -7.20426661365695E-06   9.44363658369616E-18  -7.20426661364751E-06
     -1.28331018096415E-13
      2.20000000000000E-02
      3.30000000000000E-01   3.30000000000000E-01   0.00000000000000E+00   0.00000000000000E+00   7.21228691524445E-06
      5.57416180771441E-17   7.21228691530019E-06   1.27559397503819E-13   0.00000000000000E+00   0.00000000000000E+00
      0.00000000000000E+00   0.00000000000000E+00  -7.21228691529928E-06  -8.89906343421715E-19  -7.21228691530018E-06
     -1.29642631600796E-13
      2.30000000000000E-02
      3.45000000000000E-01   3.45000000000000E-01   0.00000000000000E+00   0.00000000000000E+00   7.22027014498342E-06
      5.52233843808850E-17   7.22027014503864E-06   1.28860677261882E-13   0.00000000000000E+00   0.00000000000000E+00
      0.00000000000000E+00   0.00000000000000E+00  -7.22027014508311E-06   4.44076359431294E-17  -7.22027014503871E-06
     -1.30943911106536E-13
      2.40000000000000E-02
      3.60000000000000E-01   3.60000000000000E-01   0.00000000000000E+00   0.00000000000000E+00   7.22821724157740E-06
      5.45857968271679E-17   7.22821724163199E-06   1.30151847533464E-13   0.00000000000000E+00   0.00000000000000E+00
      0.00000000000000E+00   0.00000000000000E+00  -7.22821724161586E-06  -1.61523090433624E-17  -7.22821724163201E-06
     -1.32235081127346E-13
      2.50000000000000E-02
      3.75000000000000E-01   3.75000000000000E-01   0.00000000000000E+00   0.00000000000000E+00   7.23612894951846E-06
      5.32436533653645E-17   7.23612894957170E-06   1.31433123669104E-13   0.00000000000000E+00   0.00000000000000E+00
      0.00000000000000E+00   0.00000000000000E+00  -7.23612894958524E-06   1.35182751294169E-17  -7.23612894957172E-06
     -1.33516357013731E-13
      2.60000000000000E-02
      3.90000000000000E-01   3.90000000000000E-01   0.00000000000000E+00   0.00000000000000E+00   7.24400601144432E-06
      5.22471120839457E-17   7.24400601149656E-06   1.32704712378264E-13   0.00000000000000E+00   0.00000000000000E+00
      0.00000000000000E+00   0.00000000000000E+00  -7.24400601153115E-06   3.45225917510019E-17  -7.24400601149662E-06
     -1.34787945475119E-13
      2.70000000000000E-02
      4.05000000000000E-01   4.05000000000000E-01   0.00000000000000E+00   0.00000000000000E+00   7.25184936458681E-06
      5.11543238760668E-17   7.25184936463796E-06   1.33966812215503E-13   0.00000000000000E+00   0.00000000000000E+00
      0.00000000000000E+00   0.00000000000000E+00  -7.25184936464987E-06   1.19483405412655E-17  -7.25184936463792E-06
     -1.36050045066022E-13
      2.80000000000000E-02
      4.20000000000000E-01   4.20000000000000E-01   0.00000000000000E+00   0.00000000000000E+00   7.25966027314369E-06
      5.01194717599320E-17   7.25966027319381E-06   1.35219614036553E-13   0.00000000000000E+00   0.00000000000000E+00
      0.00000000000000E+00   0.00000000000000E+00  -7.25966027319051E-06  -3.26048284358385E-18  -7.25966027319377E-06
     -1.37302846642122E-13
      2.90000000000000E-02
      4.35000000000000E-01   4.35000000000000E-01   0.00000000000000E+00   0.00000000000000E+00   7.26744030909794E-06
      4.92631543981025E-17   7.26744030914721E-06   1.36463301430785E-13   0.00000000000000E+00   0.00000000000000E+00
      0.00000000000000E+00   0.00000000000000E+00  -7.26744030918692E-06   3.96570866697854E-17  -7.26744030914727E-06
     -1.38546533792715E-13
      3.00000000000000E-02
      4.50000000000000E-01   4.50000000000000E-01   0.00000000000000E+00   0.00000000000000E+00   7.27519121463160E-06
      4.84116250805441E-17   7.27519121468001E-06   1.37698051131128E-13   0.00000000000000E+00   0.00000000000000E+00
      0.00000000000000E+00   0.00000000000000E+00  -7.27519121471405E-06   3.40620501445271E-17  -7.27519121467999E-06
     -1.39781283250663E-13
      3.10000000000000E-02
      4.65000000000000E-01   4.65000000000000E-01   0.00000000000000E+00   0.00000000000000E+00   7.28291469939425E-06
      4.78238205501794E-17   7.28291469944207E-06   1.38924033401413E-13   0.00000000000000E+00   0.00000000000000E+00
      0.00000000000000E+00   0.00000000000000E+00  -7.28291469948712E-06   4.50581638933964E-17  -7.28291469944206E-06
     -1.41007265279727E-13
      3.20000000000000E-02
      4.80000000000000E-01   4.80000000000000E-01   0.00000000000000E+00   0.00000000000000E+00   7.29061221433222E-06
      4.74701382075589E-17   7.29061221437969E-06   1.40141412401737E-13   0.00000000000000E+00   0.00000000000000E+00
      0.00000000000000E+00   0.00000000000000E+00  -7.29061221442207E-06   4.24431289116296E-17  -7.29061221437963E-06
     -1.42224644039933E-13
      3.30000000000000E-02
      4.95000000000000E-01   4.95000000000000E-01   0.00000000000000E+00   0.00000000000000E+00   7.29828485868769E-06
      4.70777572774831E-17   7.29828485873476E-06   1.41350346527573E-13   0.00000000000000E+00   0.00000000000000E+00
      0.00000000000000E+00   0.00000000000000E+00  -7.29828485871347E-06  -2.13349531996714E-17  -7.29828485873481E-06
     -1.43433577926708E-13
      3.40000000000000E-02
      5.10000000000000E-01   5.10000000000000E-01   0.00000000000000E+00   0.00000000000000E+00   7.30593336690920E-06
      4.61751347859518E-17   7.30593336695537E-06   1.42550988726430E-13   0.00000000000000E+00   0.00000000000000E+00
      0.00000000000000E+00   0.00000000000000E+00  -7.30593336697091E-06   1.56360811866081E-17  -7.30593336695528E-06
     -1.44634219887509E-13
      3.50000000000000E-02
      5.25000000000000E-01   5.25000000000000E-01   0.00000000000000E+00   0.00000000000000E+00   7.31355817649129E-06
      4.54026778647486E-17   7.31355817653669E-06   1.43743486793728E-13   0.00000000000000E+00   0.00000000000000E+00
      0.00000000000000E+00   0.00000000000000E+00  -7.31355817656348E-06   2.68494396894897E-17  -7.31355817653663E-06
     -1.45826717717739E-13
      3.60000000000000E-02
      5.40000000000000E-01   5.40000000000000E-01   0.00000000000000E+00   0.00000000000000E+00   7.32115959567454E-06
      4.36750876583467E-17   7.32115959571821E-06   1.44927983648594E-13   0.00000000000000E+00   0.00000000000000E+00
      0.00000000000000E+00   0.00000000000000E+00  -7.32115959570871E-06  -9.45749486476308E-18  -7.32115959571817E-06
     -1.47011214336489E-13
      3.70000000000000E-02
      5.55000000000000E-01   5.55000000000000E-01   0.00000000000000E+00   0.00000000000000E+00   7.32873792773798E-06
      4.28409364680835E-17   7.32873792778082E-06   1.46104617596128E-13   0.00000000000000E+00   0.00000000000000E+00
      0.00000000000000E+00   0.00000000000000E+00  -7.32873792778832E-06   7.47392478533158E-18  -7.32873792778084E-06
     -1.48187848048826E-13
      3.80000000000000E-02
      5.70000000000000E-01   5.70000000000000E-01   0.00000000000000E+00   0.00000000000000E+00   7.33629355099858E-06
      4.20882435956272E-17   7.33629355104067E-06   1.47273522577221E-13   0.00000000000000E+00   0.00000000000000E+00
      0.00000000000000E+00   0.00000000000000E+00  -7.33629355104730E-06   6.58070885830786E-18  -7.33629355104072E-06
     -1.49356752795624E-13
      3.90000000000000E-02
      5.85000000000000E-01   5.85000000000000E-01   0.00000000000000E+00   0.00000000000000E+00   7.34382692760444E-06
      4.13228942145383E-17   7.34382692764576E-06   1.48434828407430E-13   0.00000000000000E+00   0.00000000000000E+00
      0.00000000000000E+00   0.00000000000000E+00  -7.34382692766816E-06   2.24223884257992E-17  -7.34382692764574E-06
     -1.50518058392401E-13
      4.00000000000000E-02
      6.00000000000000E-01   6.00000000000000E-01   0.00000000000000E+00   0.00000000000000E+00   7.35133852022646E-06
      4.08898705328547E-17   7.35133852026735E-06   1.49588661006204E-13   0.00000000000000E+00   0.00000000000000E+00
      0.00000000000000E+00   0.00000000000000E+00  -7.35133852030891E-06   4.15696199415567E-17  -7.35133852026735E-06
     -1.51671890758577E-13
      4.10000000000000E-02
      6.15000000000000E-01   6.15000000000000E-01   0.00000000000000E+00   0.00000000000000E+00   7.35882866939749E-06
      4.06014548609244E-17   7.35882866943809E-06   1.50735142614784E-13   0.00000000000000E+00   0.00000000000000E+00
      0.00000000000000E+00   0.00000000000000E+00  -7.35882866945973E-06   2.16544924743797E-17  -7.35882866943807E-06
     -1.52818372135356E-13
      4.20000000000000E-02
      6.30000000000000E-01   6.30000000000000E-01   0.00000000000000E+00   0.00000000000000E+00   7.36629750889350E-06
      4.03850029651440E-17   7.36629750893389E-06   1.51874391999941E-13   0.00000000000000E+00   0.00000000000000E+00
      0.00000000000000E+00   0.00000000000000E+00  -7.36629750895152E-06   1.76354746146643E-17  -7.36629750893388E-06
     -1.53957621289484E-13
      4.30000000000000E-02
      6.45000000000000E-01   6.45000000000000E-01   0.00000000000000E+00   0.00000000000000E+00   7.37374491760446E-06
      4.01638305307922E-17   7.37374491764462E-06   1.53006524643537E-13   0.00000000000000E+00   0.00000000000000E+00
      0.00000000000000E+00   0.00000000000000E+00  -7.37374491763073E-06  -1.38787783994314E-17  -7.37374491764460E-06
     -1.55089753702822E-13
      4.40000000000000E-02
      6.60000000000000E-01   6.60000000000000E-01   0.00000000000000E+00   0.00000000000000E+00   7.38117055008061E-06
      3.98787247983315E-17   7.38117055012049E-06   1.54131652916150E-13   0.00000000000000E+00   0.00000000000000E+00
      0.00000000000000E+00   0.00000000000000E+00  -7.38117055015511E-06   3.45499641204990E-17  -7.38117055012056E-06
     -1.56214881745935E-13
      4.50000000000000E-02
      6.75000000000000E-01   6.75000000000000E-01   0.00000000000000E+00   0.00000000000000E+00   7.38857394348826E-06
      3.82155074871552E-17   7.38857394352648E-06   1.55249886234305E-13   0.00000000000000E+00   0.00000000000000E+00
      0.00000000000000E+00   0.00000000000000E+00  -7.38857394353702E-06   1.06351300199950E-17  -7.38857394352638E-06
     -1.57333114835342E-13
      4.60000000000000E-02
      6.90000000000001E-01   6.90000000000001E-01   0.00000000000000E+00   0.00000000000000E+00   7.39595462712606E-06
      3.78024849342360E-17   7.39595462716387E-06   1.56361331203242E-13   0.00000000000000E+00   0.00000000000000E+00
      0.00000000000000E+00   0.00000000000000E+00  -7.39595462718878E-06   2.48632884403785E-17  -7.39595462716392E-06
     -1.58444559576284E-13
      4.70000000000000E-02
      7.05000000000001E-01   7.05000000000001E-01   0.00000000000000E+00   0.00000000000000E+00   7.40331225164381E-06
      3.73791107872959E-17   7.40331225168118E-06   1.57466091743530E-13   0.00000000000000E+00   0.00000000000000E+00
      0.00000000000000E+00   0.00000000000000E+00  -7.40331225168434E-06   3.15681829575820E-18  -7.40331225168119E-06
     -1.59549319889324E-13
      4.80000000000000E-02
      7.20000000000001E-01   7.20000000000001E-01   0.00000000000000E+00   0.00000000000000E+00   7.41064667533134E-06
      3.70266111445348E-17   7.41064667536837E-06   1.58564269202129E-13   0.00000000000000E+00   0.00000000000000E+00
      0.00000000000000E+00   0.00000000000000E+00  -7.41064667539676E-06   2.84132777968232E-17  -7.41064667536834E-06
     -1.60647497121413E-13
      4.90000000000000E-02
      7.35000000000001E-01   7.35000000000001E-01   0.00000000000000E+00   0.00000000000000E+00   7.41795796621602E-06
      3.67732190497660E-17   7.41795796625280E-06   1.59655962447756E-13   0.00000000000000E+00   0.00000000000000E+00
      0.00000000000000E+00   0.00000000000000E+00  -7.41795796625005E-06  -2.62980640352411E-18  -7.41795796625268E-06
     -1.61739190141238E-13
      5.00000000000000E-02
      7.50000000000001E-01   7.50000000000001E-01   0.00000000000000E+00   0.00000000000000E+00   7.42524634237104E-06
      3.55997447892852E-17   7.42524634240664E-06   1.60741267947278E-13   0.00000000000000E+00   0.00000000000000E+00
      0.00000000000000E+00   0.00000000000000E+00  -7.42524634244843E-06   4.17953958538261E-17  -7.42524634240663E-06
     -1.62824495415653E-13
      5.10000000000000E-02
      7.65000000000001E-01   7.65000000000001E-01   0.00000000000000E+00   0.00000000000000E+00   7.43251212216968E-06
      3.00581916368321E-17   7.43251212219974E-06   1.61820279817945E-13   0.00000000000000E+00   0.00000000000000E+00
      0.00000000000000E+00   0.00000000000000E+00  -7.43251212227600E-06   7.62585924788671E-17  -7.43251212219974E-06
     -1.63903507061874E-13
      5.20000000000000E-02
      7.80000000000001E-01   7.80000000000001E-01   0.00000000000000E+00   0.00000000000000E+00   7.43975546887700E-06
      3.02544064039219E-17   7.43975546890726E-06   1.62893089859843E-13   0.00000000000000E+00   0.00000000000000E+00
      0.00000000000000E+00   0.00000000000000E+00  -7.43975546894987E-06   4.25928670993297E-17  -7.43975546890728E-06
     -1.64976316879958E-13
      5.30000000000000E-02
      7.95000000000001E-01   7.95000000000001E-01   0.00000000000000E+00   0.00000000000000E+00   7.44697644621681E-06
      3.05172379556967E-17   7.44697644624732E-06   1.63959787546685E-13   0.00000000000000E+00   0.00000000000000E+00
      0.00000000000000E+00   0.00000000000000E+00  -7.44697644627524E-06   2.78735864454544E-17  -7.44697644624737E-06
     -1.66043014343602E-13
      5.40000000000000E-02
      8.10000000000001E-01   8.10000000000001E-01   0.00000000000000E+00   0.00000000000000E+00   7.45417495131941E-06
      3.08298714324198E-17   7.45417495135023E-06   1.65020459985586E-13   0.00000000000000E+00   0.00000000000000E+00
      0.00000000000000E+00   0.00000000000000E+00  -7.45417495140034E-06   5.00746749162082E-17  -7.45417495135026E-06
     -1.67103686559912E-13
      5.50000000000000E-02
      8.25000000000001E-01   8.25000000000001E-01   0.00000000000000E+00   0.00000000000000E+00   7.46135075618736E-06
      3.06999710244802E-17   7.46135075621806E-06   1.66075191832767E-13   0.00000000000000E+00   0.00000000000000E+00
      0.00000000000000E+00   0.00000000000000E+00  -7.46135075619180E-06  -2.62523607190131E-17  -7.46135075621805E-06
     -1.68158418185082E-13
      5.60000000000000E-02
      8.40000000000001E-01   8.40000000000001E-01   0.00000000000000E+00   0.00000000000000E+00   7.46850352172613E-06
      3.10327590029175E-17   7.46850352175716E-06   1.67124065163531E-13   0.00000000000000E+00   0.00000000000000E+00
      0.00000000000000E+00   0.00000000000000E+00  -7.46850352179902E-06   4.18555563864063E-17  -7.46850352175717E-06
     -1.69207291294433E-13
      5.70000000000000E-02
      8.55000000000001E-01   8.55000000000001E-01   0.00000000000000E+00   0.00000000000000E+00   7.47563291271420E-06
      3.14573930762374E-17   7.47563291274565E-06   1.68167159284961E-13   0.00000000000000E+00   0.00000000000000E+00
      0.00000000000000E+00   0.00000000000000E+00  -7.47563291274782E-06   2.14183003287121E-18  -7.47563291274567E-06
     -1.70250385195017E-13
      5.80000000000000E-02
      8.70000000000001E-01   8.70000000000001E-01   0.00000000000000E+00   0.00000000000000E+00   7.48273866769282E-06
      3.20366173621424E-17   7.48273866772486E-06   1.69204550487431E-13   0.00000000000000E+00   0.00000000000000E+00
      0.00000000000000E+00   0.00000000000000E+00  -7.48273866775506E-06   3.01798444277338E-17  -7.48273866772488E-06
     -1.71287776177214E-13
      5.90000000000000E-02
      8.85000000000001E-01   8.85000000000001E-01   0.00000000000000E+00   0.00000000000000E+00   7.48982061977774E-06
      3.28425814124681E-17   7.48982061981058E-06   1.70236311724944E-13   0.00000000000000E+00   0.00000000000000E+00
      0.00000000000000E+00   0.00000000000000E+00  -7.48982061982147E-06   1.08794411241296E-17  -7.48982061981059E-06
     -1.72319537195005E-13
      6.00000000000000E-02
      9.00000000000001E-01   9.00000000000001E-01   0.00000000000000E+00   0.00000000000000E+00   7.49687867630930E-06
      3.39469130950024E-17   7.49687867634324E-06   1.71262512211493E-13   0.00000000000000E+00   0.00000000000000E+00
      0.00000000000000E+00   0.00000000000000E+00  -7.49687867636123E-06   1.79889639311073E-17  -7.49687867634324E-06
     -1.73345737462374E-13
      6.10000000000000E-02
      9.15000000000001E-01   9.15000000000001E-01   0.00000000000000E+00   0.00000000000000E+00   7.50391275764961E-06
      3.54158155195024E-17   7.50391275768502E-06   1.72283216918684E-13   0.00000000000000E+00   0.00000000000000E+00
      0.00000000000000E+00   0.00000000000000E+00  -7.50391275771737E-06   3.23007515347011E-17  -7.50391275768507E-06
     -1.74366441950908E-13
      6.20000000000000E-02
      9.30000000000001E-01   9.30000000000001E-01   0.00000000000000E+00   0.00000000000000E+00   7.51092271470455E-06
      3.73121121903732E-17   7.51092271474186E-06   1.73298485956135E-13   0.00000000000000E+00   0.00000000000000E+00
      0.00000000000000E+00   0.00000000000000E+00  -7.51092271476443E-06   2.25623284966062E-17  -7.51092271474187E-06
     -1.75381710770205E-13
      6.30000000000000E-02
      9.45000000000001E-01   9.45000000000001E-01   0.00000000000000E+00   0.00000000000000E+00   7.51790825014635E-06
      3.97031284321244E-17   7.51790825018606E-06   1.74308373812380E-13   0.00000000000000E+00   0.00000000000000E+00
      0.00000000000000E+00   0.00000000000000E+00  -7.51790825022500E-06   3.89708501758059E-17  -7.51790825018603E-06
     -1.76391598408795E-13
      6.40000000000000E-02
      9.60000000000001E-01   9.60000000000001E-01   0.00000000000000E+00   0.00000000000000E+00   7.52486886578164E-06
      4.26746348266622E-17   7.52486886582431E-06   1.75312928429636E-13   0.00000000000000E+00   0.00000000000000E+00
      0.00000000000000E+00   0.00000000000000E+00  -7.52486886583580E-06   1.14967936227634E-17  -7.52486886582430E-06
     -1.77396152808890E-13
      6.50000000000000E-02
      9.75000000000001E-01   9.75000000000001E-01   0.00000000000000E+00   0.00000000000000E+00   7.53180384944144E-06
      4.63475697252287E-17   7.53180384948779E-06   1.76312190080735E-13   0.00000000000000E+00   0.00000000000000E+00
      0.00000000000000E+00   0.00000000000000E+00  -7.53180384949534E-06   7.59081086836871E-18  -7.53180384948775E-06
     -1.78395414243322E-13
      6.60000000000000E-02
      9.90000000000001E-01   9.90000000000001E-01   0.00000000000000E+00   0.00000000000000E+00   7.53871230203138E-06
      5.08958083687105E-17   7.53871230208228E-06   1.77306190010457E-13   0.00000000000000E+00   0.00000000000000E+00
      0.00000000000000E+00   0.00000000000000E+00  -7.53871230208694E-06   4.58137906371216E-18  -7.53871230208236E-06
     -1.79389413956884E-13
      6.70000000000000E-02
      1.00500000000000E+00   1.00500000000000E+00   0.00000000000000E+00   0.00000000000000E+00   7.54559319278074E-06
      5.65629907084694E-17   7.54559319283730E-06   1.78294948796462E-13   0.00000000000000E+00   0.00000000000000E+00
      0.00000000000000E+00   0.00000000000000E+00  -7.54559319284039E-06   3.08393158163200E-18  -7.54559319283730E-06
     -1.80378172527236E-13
      6.80000000000000E-02
      1.02000000000000E+00   1.02000000000000E+00   0.00000000000000E+00   0.00000000000000E+00   7.55244542218635E-06
      6.36793470669909E-17   7.55244542225003E-06   1.79278474376583E-13   0.00000000000000E+00   0.00000000000000E+00
      0.00000000000000E+00   0.00000000000000E+00  -7.55244542225215E-06   2.09935085009644E-18  -7.55244542225005E-06
     -1.81361697892239E-13
      6.90000000000000E-02