DF-ISE text

Info {
  version   = 1.0
  type      = xyplot
  datasets  = [
    "time"
    "ntype OuterVoltage" "ntype InnerVoltage" "ntype QuasiFermiPotential" "ntype DisplacementCurrent" "ntype eCurrent"
    "ntype hCurrent" "ntype TotalCurrent" "ntype Charge" "ptype OuterVoltage" "ptype InnerVoltage"
    "ptype QuasiFermiPotential" "ptype DisplacementCurrent" "ptype eCurrent" "ptype hCurrent" "ptype TotalCurrent"
    "ptype Charge" ]
  functions = [
    Time
    OuterVoltage InnerVoltage QuasiFermiPotential DisplacementCurrent eCurrent
    hCurrent TotalCurrent Charge OuterVoltage InnerVoltage
    QuasiFermiPotential DisplacementCurrent eCurrent hCurrent TotalCurrent
    Charge ]
}

Data {
      0.00000000000000E+00
      0.00000000000000E+00   0.00000000000000E+00   0.00000000000000E+00   0.00000000000000E+00   1.88125265056514E-07
     -1.88125265056707E-07  -1.93103024354625E-19   3.99145422400016E-14   0.00000000000000E+00   0.00000000000000E+00
      0.00000000000000E+00   0.00000000000000E+00   8.00469575373164E-07  -8.00469575372987E-07   1.77791651562590E-19
     -4.19979509963833E-14
      0.00000000000000E+00
      0.00000000000000E+00   0.00000000000000E+00   0.00000000000000E+00   0.00000000000000E+00   7.49308866314418E-07
     -1.86900504169473E-07   5.62408362144945E-07   3.99141306702026E-14   0.00000000000000E+00   0.00000000000000E+00
      0.00000000000000E+00   0.00000000000000E+00   1.29349420635361E-07  -6.91757783263888E-07  -5.62408362628527E-07
     -4.19975394287319E-14
      0.00000000000000E+00
      0.00000000000000E+00   0.00000000000000E+00   0.00000000000000E+00   0.00000000000000E+00   7.40459763148900E-07
      1.51547831956350E-19   7.40459763149052E-07   3.98925758669970E-14   0.00000000000000E+00   0.00000000000000E+00
      0.00000000000000E+00   0.00000000000000E+00  -7.40459763143632E-07  -5.44780974893680E-18  -7.40459763149080E-07
     -4.19759730899602E-14
      1.00000000000000E-03
      1.50000000000000E-02   1.50000000000000E-02   0.00000000000000E+00   0.00000000000000E+00   7.41170018905548E-07
     -2.50972963213236E-17   7.41170018880450E-07   4.08145988159278E-14   0.00000000000000E+00   0.00000000000000E+00
      0.00000000000000E+00   0.00000000000000E+00  -7.41170018881926E-07   1.48230818521916E-18  -7.41170018880444E-07
     -4.28979960382829E-14
      2.00000000000000E-03
      3.00000000000000E-02   3.00000000000000E-02   0.00000000000000E+00   0.00000000000000E+00   7.41774352555250E-07
     -1.01425551284252E-17   7.41774352545107E-07   4.17344624775443E-14   0.00000000000000E+00   0.00000000000000E+00
      0.00000000000000E+00   0.00000000000000E+00  -7.41774352525357E-07  -1.97331586709911E-17  -7.41774352545090E-07
     -4.38178596996078E-14
      3.00000000000000E-03
      4.50000000000000E-02   4.50000000000000E-02   0.00000000000000E+00   0.00000000000000E+00   7.42305334070417E-07
     -7.07491555453142E-18   7.42305334063342E-07   4.26521285319420E-14   0.00000000000000E+00   0.00000000000000E+00
      0.00000000000000E+00   0.00000000000000E+00  -7.42305334034041E-07  -2.92923795064824E-17  -7.42305334063333E-07
     -4.47355257539300E-14
      4.00000000000000E-03
      6.00000000000000E-02   6.00000000000000E-02   0.00000000000000E+00   0.00000000000000E+00   7.42783553581162E-07
     -5.52524391040755E-18   7.42783553575637E-07   4.35675737243205E-14   0.00000000000000E+00   0.00000000000000E+00
      0.00000000000000E+00   0.00000000000000E+00  -7.42783553592581E-07   1.69381840713080E-17  -7.42783553575643E-07
     -4.56509709463959E-14
      5.00000000000000E-03
      7.50000000000000E-02   7.50000000000000E-02   0.00000000000000E+00   0.00000000000000E+00   7.43222210580948E-07
     -3.44495957732354E-18   7.43222210577503E-07   4.44807873327348E-14   0.00000000000000E+00   0.00000000000000E+00
      0.00000000000000E+00   0.00000000000000E+00  -7.43222210572660E-07  -4.83389242478957E-18  -7.43222210577494E-07
     -4.65641845550132E-14
      6.00000000000000E-03
      9.00000000000000E-02   9.00000000000000E-02   0.00000000000000E+00   0.00000000000000E+00   7.43629920684067E-07
     -2.59068655810496E-18   7.43629920681477E-07   4.53917689972771E-14   0.00000000000000E+00   0.00000000000000E+00
      0.00000000000000E+00   0.00000000000000E+00  -7.43629920688983E-07   7.50811627739594E-18  -7.43629920681475E-07
     -4.74751662198557E-14
      7.00000000000000E-03
      1.05000000000000E-01   1.05000000000000E-01   0.00000000000000E+00   0.00000000000000E+00   7.44012441438453E-07
     -2.29121726662939E-18   7.44012441436162E-07   4.63005268608334E-14   0.00000000000000E+00   0.00000000000000E+00
      0.00000000000000E+00   0.00000000000000E+00  -7.44012441425673E-07  -1.05139913801410E-17  -7.44012441436187E-07
     -4.83839240837917E-14
      8.00000000000000E-03
      1.20000000000000E-01   1.20000000000000E-01   0.00000000000000E+00   0.00000000000000E+00   7.44373737832662E-07
     -1.28902943720303E-18   7.44373737831373E-07   4.72070759800967E-14   0.00000000000000E+00   0.00000000000000E+00
      0.00000000000000E+00   0.00000000000000E+00  -7.44373737826003E-07  -5.39738382236245E-18  -7.44373737831400E-07
     -4.92904732034992E-14
      9.00000000000000E-03
      1.35000000000000E-01   1.35000000000000E-01   0.00000000000000E+00   0.00000000000000E+00   7.44716641647721E-07
     -1.34721627886883E-18   7.44716641646373E-07   4.81114369715562E-14   0.00000000000000E+00   0.00000000000000E+00
      0.00000000000000E+00   0.00000000000000E+00  -7.44716641665281E-07   1.89146957286686E-17  -7.44716641646366E-07
     -5.01948341954693E-14
      1.00000000000000E-02
      1.50000000000000E-01   1.50000000000000E-01   0.00000000000000E+00   0.00000000000000E+00   7.45043259506487E-07
     -9.41615437590328E-19   7.45043259505546E-07   4.90136348617901E-14   0.00000000000000E+00   0.00000000000000E+00
      0.00000000000000E+00   0.00000000000000E+00  -7.45043259474940E-07  -3.06469211471204E-17  -7.45043259505587E-07
     -5.10970320862658E-14
      1.10000000000000E-02
      1.65000000000000E-01   1.65000000000000E-01   0.00000000000000E+00   0.00000000000000E+00   7.45355225161018E-07
     -7.30727294076726E-19   7.45355225160287E-07   4.99136981151188E-14   0.00000000000000E+00   0.00000000000000E+00
      0.00000000000000E+00   0.00000000000000E+00  -7.45355225163333E-07   3.02512073957432E-18  -7.45355225160308E-07
     -5.19970953402054E-14
      1.20000000000000E-02
      1.80000000000000E-01   1.80000000000000E-01   0.00000000000000E+00   0.00000000000000E+00   7.45653855870101E-07
     -9.11623499017470E-19   7.45653855869189E-07   5.08116578148370E-14   0.00000000000000E+00   0.00000000000000E+00
      0.00000000000000E+00   0.00000000000000E+00  -7.45653855864939E-07  -4.22165575078578E-18  -7.45653855869161E-07
     -5.28950550405836E-14
      1.30000000000000E-02
      1.95000000000000E-01   1.95000000000000E-01   0.00000000000000E+00   0.00000000000000E+00   7.45940250437184E-07
     -5.47769836347297E-19   7.45940250436637E-07   5.17075469770353E-14   0.00000000000000E+00   0.00000000000000E+00
      0.00000000000000E+00   0.00000000000000E+00  -7.45940250426904E-07  -9.71037934601135E-18  -7.45940250436615E-07
     -5.37909442034843E-14
      1.40000000000000E-02
      2.10000000000000E-01   2.10000000000000E-01   0.00000000000000E+00   0.00000000000000E+00   7.46215351812568E-07
     -6.54664133051594E-19   7.46215351811913E-07   5.26013999785520E-14   0.00000000000000E+00   0.00000000000000E+00
      0.00000000000000E+00   0.00000000000000E+00  -7.46215351823195E-07   1.12952507346241E-17  -7.46215351811899E-07
     -5.46847972057455E-14
      1.50000000000000E-02
      2.25000000000000E-01   2.25000000000000E-01   0.00000000000000E+00   0.00000000000000E+00   7.46479987538566E-07
     -7.43398788974762E-19   7.46479987537822E-07   5.34932520828447E-14   0.00000000000000E+00   0.00000000000000E+00
      0.00000000000000E+00   0.00000000000000E+00  -7.46479987517757E-07  -2.00412598840632E-17  -7.46479987537798E-07
     -5.55766493108231E-14
      1.60000000000000E-02
      2.40000000000000E-01   2.40000000000000E-01   0.00000000000000E+00   0.00000000000000E+00   7.46734895682598E-07
     -4.23576090240798E-19   7.46734895682174E-07   5.43831390496072E-14   0.00000000000000E+00   0.00000000000000E+00
      0.00000000000000E+00   0.00000000000000E+00  -7.46734895690252E-07   8.04857817146382E-18  -7.46734895682203E-07
     -5.64665362784091E-14
      1.70000000000000E-02
      2.55000000000000E-01   2.55000000000000E-01   0.00000000000000E+00   0.00000000000000E+00   7.46980741249377E-07
     -3.65884335376876E-19   7.46980741249012E-07   5.52710968157310E-14   0.00000000000000E+00   0.00000000000000E+00
      0.00000000000000E+00   0.00000000000000E+00  -7.46980741204748E-07  -4.42369623732465E-17  -7.46980741248985E-07
     -5.73544940453863E-14
      1.80000000000000E-02
      2.70000000000000E-01   2.70000000000000E-01   0.00000000000000E+00   0.00000000000000E+00   7.47218126972860E-07
     -2.83817149911244E-19   7.47218126972576E-07   5.61571612367945E-14   0.00000000000000E+00   0.00000000000000E+00
      0.00000000000000E+00   0.00000000000000E+00  -7.47218126965801E-07  -6.78831013515064E-18  -7.47218126972589E-07
     -5.82405584673463E-14
      1.90000000000000E-02
      2.85000000000000E-01   2.85000000000000E-01   0.00000000000000E+00   0.00000000000000E+00   7.47447601533127E-07
     -6.49901572182147E-19   7.47447601532477E-07   5.70413678796965E-14   0.00000000000000E+00   0.00000000000000E+00
      0.00000000000000E+00   0.00000000000000E+00  -7.47447601551170E-07   1.86961185433865E-17  -7.47447601532474E-07
     -5.91247651111737E-14
      2.00000000000000E-02
      3.00000000000000E-01   3.00000000000000E-01   0.00000000000000E+00   0.00000000000000E+00   7.47669667004008E-07
     -8.80312802847359E-20   7.47669667003920E-07   5.79237518583256E-14   0.00000000000000E+00   0.00000000000000E+00
      0.00000000000000E+00   0.00000000000000E+00  -7.47669666987530E-07  -1.63924970649673E-17  -7.47669667003922E-07
     -6.00071490907607E-14
      2.10000000000000E-02
      3.15000000000000E-01   3.15000000000000E-01   0.00000000000000E+00   0.00000000000000E+00   7.47884785913274E-07
      5.33453666333667E-21   7.47884785913280E-07   5.88043477053238E-14   0.00000000000000E+00   0.00000000000000E+00
      0.00000000000000E+00   0.00000000000000E+00  -7.47884785905413E-07  -7.86634437890071E-18  -7.47884785913280E-07
     -6.08877449387533E-14
      2.20000000000000E-02
      3.30000000000000E-01   3.30000000000000E-01   0.00000000000000E+00   0.00000000000000E+00   7.48093387276540E-07
     -7.96121719303684E-20   7.48093387276461E-07   5.96831892740050E-14   0.00000000000000E+00   0.00000000000000E+00
      0.00000000000000E+00   0.00000000000000E+00  -7.48093387266257E-07  -1.01736607681326E-17  -7.48093387276431E-07
     -6.17665865084585E-14
      2.30000000000000E-02
      3.45000000000000E-01   3.45000000000000E-01   0.00000000000000E+00   0.00000000000000E+00   7.48295870768198E-07
      6.74649938022066E-20   7.48295870768266E-07   6.05603096653589E-14   0.00000000000000E+00   0.00000000000000E+00
      0.00000000000000E+00   0.00000000000000E+00  -7.48295870736703E-07  -3.15710485617539E-17  -7.48295870768274E-07
     -6.26437069008661E-14
      2.40000000000000E-02
      3.60000000000000E-01   3.60000000000000E-01   0.00000000000000E+00   0.00000000000000E+00   7.48492608757634E-07
     -3.19436701142856E-19   7.48492608757314E-07   6.14357411758041E-14   0.00000000000000E+00   0.00000000000000E+00
      0.00000000000000E+00   0.00000000000000E+00  -7.48492608777894E-07   2.05754417335051E-17  -7.48492608757319E-07
     -6.35191384123954E-14
      2.50000000000000E-02
      3.75000000000000E-01   3.75000000000000E-01   0.00000000000000E+00   0.00000000000000E+00   7.48683946800697E-07
     -1.67266399129211E-19   7.48683946800530E-07   6.23095152619851E-14   0.00000000000000E+00   0.00000000000000E+00
      0.00000000000000E+00   0.00000000000000E+00  -7.48683946809971E-07   9.42767180727706E-18  -7.48683946800544E-07
     -6.43929124996825E-14
      2.60000000000000E-02
      3.90000000000000E-01   3.90000000000000E-01   0.00000000000000E+00   0.00000000000000E+00   7.48870203780104E-07
     -2.63572224312323E-19   7.48870203779841E-07   6.31816625194525E-14   0.00000000000000E+00   0.00000000000000E+00
      0.00000000000000E+00   0.00000000000000E+00  -7.48870203780260E-07   4.10733454827066E-19  -7.48870203779850E-07
     -6.52650597582964E-14
      2.70000000000000E-02
      4.05000000000000E-01   4.05000000000000E-01   0.00000000000000E+00   0.00000000000000E+00   7.49051672903114E-07
     -2.89304721995890E-19   7.49051672902825E-07   6.40522126725641E-14   0.00000000000000E+00   0.00000000000000E+00
      0.00000000000000E+00   0.00000000000000E+00  -7.49051672916118E-07   1.32895982370370E-17  -7.49051672902829E-07
     -6.61356099125779E-14
      2.80000000000000E-02
      4.20000000000000E-01   4.20000000000000E-01   0.00000000000000E+00   0.00000000000000E+00   7.49228624214990E-07
     -7.57886153442931E-20   7.49228624214914E-07   6.49211945733674E-14   0.00000000000000E+00   0.00000000000000E+00
      0.00000000000000E+00   0.00000000000000E+00  -7.49228624214276E-07  -6.43760302325676E-19  -7.49228624214919E-07
     -6.70045918145800E-14
      2.90000000000000E-02
      4.35000000000000E-01   4.35000000000000E-01   0.00000000000000E+00   0.00000000000000E+00   7.49401308465712E-07
      4.34978039196689E-20   7.49401308465756E-07   6.57886362076198E-14   0.00000000000000E+00   0.00000000000000E+00
      0.00000000000000E+00   0.00000000000000E+00  -7.49401308449980E-07  -1.57851434708681E-17  -7.49401308465766E-07
     -6.78720334500551E-14
      3.00000000000000E-02
      4.50000000000000E-01   4.50000000000000E-01   0.00000000000000E+00   0.00000000000000E+00   7.49569961467628E-07
     -1.62849264925330E-19   7.49569961467465E-07   6.66545647064279E-14   0.00000000000000E+00   0.00000000000000E+00
      0.00000000000000E+00   0.00000000000000E+00  -7.49569961448448E-07  -1.90369617073395E-17  -7.49569961467485E-07
     -6.87379619501184E-14
      3.10000000000000E-02
      4.65000000000000E-01   4.65000000000000E-01   0.00000000000000E+00   0.00000000000000E+00   7.49734807795249E-07
     -7.21467165962159E-22   7.49734807795249E-07   6.75190063622487E-14   0.00000000000000E+00   0.00000000000000E+00
      0.00000000000000E+00   0.00000000000000E+00  -7.49734807770515E-07  -2.47365441079501E-17  -7.49734807795252E-07
     -6.96024036072177E-14
      3.20000000000000E-02
      4.80000000000000E-01   4.80000000000000E-01   0.00000000000000E+00   0.00000000000000E+00   7.49896062896372E-07
     -3.97976646291417E-19   7.49896062895974E-07   6.83819866482275E-14   0.00000000000000E+00   0.00000000000000E+00
      0.00000000000000E+00   0.00000000000000E+00  -7.49896062888954E-07  -7.05024310878935E-18  -7.49896062896004E-07
     -7.04653838945048E-14
      3.30000000000000E-02
      4.95000000000000E-01   4.95000000000000E-01   0.00000000000000E+00   0.00000000000000E+00   7.50053933240126E-07
      8.48543270436120E-21   7.50053933240134E-07   6.92435302399962E-14   0.00000000000000E+00   0.00000000000000E+00
      0.00000000000000E+00   0.00000000000000E+00  -7.50053933225609E-07  -1.45106787628987E-17  -7.50053933240120E-07
     -7.13269274876020E-14
      3.40000000000000E-02
      5.10000000000000E-01   5.10000000000000E-01   0.00000000000000E+00   0.00000000000000E+00   7.50208614810963E-07
      1.23412131362070E-19   7.50208614811087E-07   7.01036610392195E-14   0.00000000000000E+00   0.00000000000000E+00
      0.00000000000000E+00   0.00000000000000E+00  -7.50208614872318E-07   6.12203017832515E-17  -7.50208614811098E-07
     -7.21870582881877E-14
      3.50000000000000E-02
      5.25000000000000E-01   5.25000000000000E-01   0.00000000000000E+00   0.00000000000000E+00   7.50360290796440E-07
     -1.28987865890574E-19   7.50360290796311E-07   7.09624021982754E-14   0.00000000000000E+00   0.00000000000000E+00
      0.00000000000000E+00   0.00000000000000E+00  -7.50360290810601E-07   1.43239632316433E-17  -7.50360290796277E-07
     -7.30457994486278E-14
      3.60000000000000E-02
      5.40000000000000E-01   5.40000000000000E-01   0.00000000000000E+00   0.00000000000000E+00   7.50509129579335E-07
     -1.24703886679428E-19   7.50509129579211E-07   7.18197761455628E-14   0.00000000000000E+00   0.00000000000000E+00
      0.00000000000000E+00   0.00000000000000E+00  -7.50509129561763E-07  -1.74302121780720E-17  -7.50509129579193E-07
     -7.39031733973308E-14
      3.70000000000000E-02
      5.55000000000000E-01   5.55000000000000E-01   0.00000000000000E+00   0.00000000000000E+00   7.50655283922264E-07
      3.29713701365444E-20   7.50655283922297E-07   7.26758046110515E-14   0.00000000000000E+00   0.00000000000000E+00
      0.00000000000000E+00   0.00000000000000E+00  -7.50655283937305E-07   1.50413938129137E-17  -7.50655283922264E-07
     -7.47592018642581E-14
      3.80000000000000E-02
      5.70000000000000E-01   5.70000000000000E-01   0.00000000000000E+00   0.00000000000000E+00   7.50798891935809E-07
      1.06214851836422E-19   7.50798891935915E-07   7.35305086517377E-14   0.00000000000000E+00   0.00000000000000E+00
      0.00000000000000E+00   0.00000000000000E+00  -7.50798891908307E-07  -2.76047007453437E-17  -7.50798891935911E-07
     -7.56139059064118E-14
      3.90000000000000E-02
      5.85000000000000E-01   5.85000000000000E-01   0.00000000000000E+00   0.00000000000000E+00   7.50940080041818E-07
      3.40882620645836E-19   7.50940080042159E-07   7.43839086767850E-14   0.00000000000000E+00   0.00000000000000E+00
      0.00000000000000E+00   0.00000000000000E+00  -7.50940080010608E-07  -3.15678863912581E-17  -7.50940080042176E-07
     -7.64673059329516E-14
      4.00000000000000E-02
      6.00000000000000E-01   6.00000000000000E-01   0.00000000000000E+00   0.00000000000000E+00   7.51078968204645E-07
      1.60358439616354E-20   7.51078968204661E-07   7.52360244721505E-14   0.00000000000000E+00   0.00000000000000E+00
      0.00000000000000E+00   0.00000000000000E+00  -7.51078968198711E-07  -5.95708865586473E-18  -7.51078968204668E-07
     -7.73194217298340E-14
      4.10000000000000E-02
      6.15000000000000E-01   6.15000000000000E-01   0.00000000000000E+00   0.00000000000000E+00   7.51215668634944E-07
     -4.39143444646244E-19   7.51215668634505E-07   7.60868752248243E-14   0.00000000000000E+00   0.00000000000000E+00
      0.00000000000000E+00   0.00000000000000E+00  -7.51215668610589E-07  -2.39201511523392E-17  -7.51215668634509E-07
     -7.81702724840573E-14
      4.20000000000000E-02
      6.30000000000000E-01   6.30000000000000E-01   0.00000000000000E+00   0.00000000000000E+00   7.51350295210570E-07
      3.18722997132364E-19   7.51350295210888E-07   7.69364795460783E-14   0.00000000000000E+00   0.00000000000000E+00
      0.00000000000000E+00   0.00000000000000E+00  -7.51350295219250E-07   8.35760505404572E-18  -7.51350295210892E-07
     -7.90198768068820E-14
      4.30000000000000E-02
      6.45000000000000E-01   6.45000000000000E-01   0.00000000000000E+00   0.00000000000000E+00   7.51482964047951E-07
     -5.12186333159347E-20   7.51482964047900E-07   7.77848554942234E-14   0.00000000000000E+00   0.00000000000000E+00
      0.00000000000000E+00   0.00000000000000E+00  -7.51482964079128E-07   3.11747892125069E-17  -7.51482964047953E-07
     -7.98682527566233E-14
      4.40000000000000E-02
      6.60000000000000E-01   6.60000000000000E-01   0.00000000000000E+00   0.00000000000000E+00   7.51613793720833E-07
     -3.84346739221335E-20   7.51613793720794E-07   7.86320205965796E-14   0.00000000000000E+00   0.00000000000000E+00
      0.00000000000000E+00   0.00000000000000E+00  -7.51613793694449E-07  -2.63472390814914E-17  -7.51613793720796E-07
     -8.07154178606111E-14
      4.50000000000000E-02
      6.75000000000000E-01   6.75000000000000E-01   0.00000000000000E+00   0.00000000000000E+00   7.51742903796293E-07
      3.18741662458341E-19   7.51742903796612E-07   7.94779918706732E-14   0.00000000000000E+00   0.00000000000000E+00
      0.00000000000000E+00   0.00000000000000E+00  -7.51742903800079E-07   3.45866384919356E-18  -7.51742903796620E-07
     -8.15613891363594E-14
      4.60000000000000E-02
      6.90000000000001E-01   6.90000000000001E-01   0.00000000000000E+00   0.00000000000000E+00   7.51870411918894E-07
      2.45906387724786E-19   7.51870411919139E-07   8.03227858446418E-14   0.00000000000000E+00   0.00000000000000E+00
      0.00000000000000E+00   0.00000000000000E+00  -7.51870411885999E-07  -3.31481928564060E-17  -7.51870411919147E-07
     -8.24061831120070E-14
      4.70000000000000E-02
      7.05000000000001E-01   7.05000000000001E-01   0.00000000000000E+00   0.00000000000000E+00   7.51996430123974E-07
      1.06293090942420E-19   7.51996430124080E-07   8.11664185768230E-14   0.00000000000000E+00   0.00000000000000E+00
      0.00000000000000E+00   0.00000000000000E+00  -7.51996430130487E-07   6.37901381899501E-18  -7.51996430124108E-07
     -8.32498158458984E-14
      4.80000000000000E-02
      7.20000000000001E-01   7.20000000000001E-01   0.00000000000000E+00   0.00000000000000E+00   7.52121061194373E-07
      1.14379294938524E-20   7.52121061194384E-07   8.20089056745262E-14   0.00000000000000E+00   0.00000000000000E+00
      0.00000000000000E+00   0.00000000000000E+00  -7.52121061200203E-07   5.77950954916441E-18  -7.52121061194423E-07
     -8.40923029453415E-14
      4.90000000000000E-02
      7.35000000000001E-01   7.35000000000001E-01   0.00000000000000E+00   0.00000000000000E+00   7.52244395841561E-07
      5.42639605684221E-19   7.52244395842104E-07   8.28502623119595E-14   0.00000000000000E+00   0.00000000000000E+00
      0.00000000000000E+00   0.00000000000000E+00  -7.52244395846104E-07   4.00224041742069E-18  -7.52244395842102E-07
     -8.49336595845371E-14
      5.00000000000000E-02
      7.50000000000001E-01   7.50000000000001E-01   0.00000000000000E+00   0.00000000000000E+00   7.52366511320078E-07
      3.27686032662379E-19   7.52366511320406E-07   8.36905032473391E-14   0.00000000000000E+00   0.00000000000000E+00
      0.00000000000000E+00   0.00000000000000E+00  -7.52366511321803E-07   1.38818917556770E-18  -7.52366511320415E-07
     -8.57739005217113E-14
      5.10000000000000E-02
      7.65000000000001E-01   7.65000000000001E-01   0.00000000000000E+00   0.00000000000000E+00   7.52487471809811E-07
      3.08441811556391E-19   7.52487471810119E-07   8.45296428391814E-14   0.00000000000000E+00   0.00000000000000E+00
      0.00000000000000E+00   0.00000000000000E+00  -7.52487471818227E-07   8.12278401355175E-18  -7.52487471810104E-07
     -8.66130401153725E-14
      5.20000000000000E-02
      7.80000000000001E-01   7.80000000000001E-01   0.00000000000000E+00   0.00000000000000E+00   7.52607330579426E-07
     -4.60324741806246E-21   7.52607330579421E-07   8.53676950618102E-14   0.00000000000000E+00   0.00000000000000E+00
      0.00000000000000E+00   0.00000000000000E+00  -7.52607330579140E-07  -2.87997565637501E-19  -7.52607330579428E-07
     -8.74510923398536E-14
      5.30000000000000E-02
      7.95000000000001E-01   7.95000000000001E-01   0.00000000000000E+00   0.00000000000000E+00   7.52726133629262E-07
      9.77951696836070E-21   7.52726133629272E-07   8.62046735201156E-14   0.00000000000000E+00   0.00000000000000E+00
      0.00000000000000E+00   0.00000000000000E+00  -7.52726133591344E-07  -3.79249510577997E-17  -7.52726133629269E-07
     -8.82880708000409E-14
      5.40000000000000E-02
      8.10000000000001E-01   8.10000000000001E-01   0.00000000000000E+00   0.00000000000000E+00   7.52843924258593E-07
     -3.95373457745226E-20   7.52843924258554E-07   8.70405914636093E-14   0.00000000000000E+00   0.00000000000000E+00
      0.00000000000000E+00   0.00000000000000E+00  -7.52843924282468E-07   2.39020297868681E-17  -7.52843924258565E-07
     -8.91239887454426E-14
      5.50000000000000E-02
      8.25000000000001E-01   8.25000000000001E-01   0.00000000000000E+00   0.00000000000000E+00   7.52960747853355E-07
     -2.79986471473846E-19   7.52960747853075E-07   8.78754617998213E-14   0.00000000000000E+00   0.00000000000000E+00
      0.00000000000000E+00   0.00000000000000E+00  -7.52960747865019E-07   1.19245602343059E-17  -7.52960747853094E-07
     -8.99588590835947E-14
      5.60000000000000E-02
      8.40000000000001E-01   8.40000000000001E-01   0.00000000000000E+00   0.00000000000000E+00   7.53076656168731E-07
     -3.46966470576277E-20   7.53076656168696E-07   8.87092971070978E-14   0.00000000000000E+00   0.00000000000000E+00
      0.00000000000000E+00   0.00000000000000E+00  -7.53076656172707E-07   4.01529942552100E-18  -7.53076656168692E-07
     -9.07926943928364E-14
      5.70000000000000E-02
      8.55000000000001E-01   8.55000000000001E-01   0.00000000000000E+00   0.00000000000000E+00   7.53191710482509E-07
     -5.84591934114062E-20   7.53191710482451E-07   8.95421096468250E-14   0.00000000000000E+00   0.00000000000000E+00
      0.00000000000000E+00   0.00000000000000E+00  -7.53191710450649E-07  -3.18012965629989E-17  -7.53191710482450E-07
     -9.16255069345683E-14
      5.80000000000000E-02
      8.70000000000001E-01   8.70000000000001E-01   0.00000000000000E+00   0.00000000000000E+00   7.53305983191330E-07
     -1.03704247357424E-19   7.53305983191226E-07   9.03739113751377E-14   0.00000000000000E+00   0.00000000000000E+00
      0.00000000000000E+00   0.00000000000000E+00  -7.53305983154192E-07  -3.70382256571580E-17  -7.53305983191230E-07
     -9.24573086649125E-14
      5.90000000000000E-02
      8.85000000000001E-01   8.85000000000001E-01   0.00000000000000E+00   0.00000000000000E+00   7.53419557668801E-07
     -2.55058371708372E-19   7.53419557668546E-07   9.12047139541304E-14   0.00000000000000E+00   0.00000000000000E+00
      0.00000000000000E+00   0.00000000000000E+00  -7.53419557685637E-07   1.71275969287520E-17  -7.53419557668510E-07
     -9.32881112459681E-14
      6.00000000000000E-02
      9.00000000000001E-01   9.00000000000001E-01   0.00000000000000E+00   0.00000000000000E+00   7.53532526454612E-07
      1.79245488065023E-19   7.53532526454791E-07   9.20345287625952E-14   0.00000000000000E+00   0.00000000000000E+00
      0.00000000000000E+00   0.00000000000000E+00  -7.53532526473827E-07   1.90293007423737E-17  -7.53532526454798E-07
     -9.41179260565248E-14
      6.10000000000000E-02
      9.15000000000001E-01   9.15000000000001E-01   0.00000000000000E+00   0.00000000000000E+00   7.53644988058858E-07
      3.82290920641479E-19   7.53644988059240E-07   9.28633669063014E-14   0.00000000000000E+00   0.00000000000000E+00
      0.00000000000000E+00   0.00000000000000E+00  -7.53644988043606E-07  -1.56256642958809E-17  -7.53644988059232E-07
     -9.49467642023626E-14
      6.20000000000000E-02
      9.30000000000001E-01   9.30000000000001E-01   0.00000000000000E+00   0.00000000000000E+00   7.53757042821314E-07
      1.75816907328121E-20   7.53757042821331E-07   9.36912392278297E-14   0.00000000000000E+00   0.00000000000000E+00
      0.00000000000000E+00   0.00000000000000E+00  -7.53757042836170E-07   1.48405543155347E-17  -7.53757042821330E-07
     -9.57746365260474E-14
      6.30000000000000E-02
      9.45000000000001E-01   9.45000000000001E-01   0.00000000000000E+00   0.00000000000000E+00   7.53868788354447E-07
      3.86080825636234E-19   7.53868788354834E-07   9.45181563159600E-14   0.00000000000000E+00   0.00000000000000E+00
      0.00000000000000E+00   0.00000000000000E+00  -7.53868788342846E-07  -1.20022870636106E-17  -7.53868788354848E-07
     -9.66015536163644E-14
      6.40000000000000E-02
      9.60000000000001E-01   9.60000000000001E-01   0.00000000000000E+00   0.00000000000000E+00   7.53980315121889E-07
     -1.59120486341688E-19   7.53980315121730E-07   9.53441285146294E-14   0.00000000000000E+00   0.00000000000000E+00
      0.00000000000000E+00   0.00000000000000E+00  -7.53980315123400E-07   1.65534843771077E-18  -7.53980315121745E-07
     -9.74275258172589E-14
      6.50000000000000E-02
      9.75000000000001E-01   9.75000000000001E-01   0.00000000000000E+00   0.00000000000000E+00   7.54091702670090E-07
      6.30504923206148E-20   7.54091702670153E-07   9.61691659314513E-14   0.00000000000000E+00   0.00000000000000E+00
      0.00000000000000E+00   0.00000000000000E+00  -7.54091702704198E-07   3.40482950496338E-17  -7.54091702670149E-07
     -9.82525632363380E-14
      6.60000000000000E-02
      9.90000000000001E-01   9.90000000000001E-01   0.00000000000000E+00   0.00000000000000E+00   7.54203016948660E-07
      2.11013366586617E-19   7.54203016948871E-07   9.69932784458185E-14   0.00000000000000E+00   0.00000000000000E+00
      0.00000000000000E+00   0.00000000000000E+00  -7.54203016948390E-07  -4.95522635993614E-19  -7.54203016948885E-07
     -9.90766757529893E-14
      6.70000000000000E-02
      1.00500000000000E+00   1.00500000000000E+00   0.00000000000000E+00   0.00000000000000E+00   7.54314309033765E-07
      2.79426342930261E-20   7.54314309033793E-07   9.78164757165867E-14   0.00000000000000E+00   0.00000000000000E+00
      0.00000000000000E+00   0.00000000000000E+00  -7.54314309028570E-07  -5.26252330193279E-18  -7.54314309033832E-07
     -9.98998730260795E-14
      6.80000000000000E-02
      1.02000000000000E+00   1.02000000000000E+00   0.00000000000000E+00   0.00000000000000E+00   7.54425615417586E-07
     -5.04707241673847E-19   7.54425615417081E-07   9.86387671893682E-14   0.00000000000000E+00   0.00000000000000E+00
      0.00000000000000E+00   0.00000000000000E+00  -7.54425615435250E-07   1.81501252677769E-17  -7.54425615417100E-07
     -1.00722164501222E-13
      6.90000000000000E-02