DF-ISE text

Info {
  version   = 1.0
  type      = xyplot
  datasets  = [
    "time"
    "ntype OuterVoltage" "ntype InnerVoltage" "ntype QuasiFermiPotential" "ntype DisplacementCurrent" "ntype eCurrent"
    "ntype hCurrent" "ntype TotalCurrent" "ntype Charge" "ptype OuterVoltage" "ptype InnerVoltage"
    "ptype QuasiFermiPotential" "ptype DisplacementCurrent" "ptype eCurrent" "ptype hCurrent" "ptype TotalCurrent"
    "ptype Charge" ]
  functions = [
    Time
    OuterVoltage InnerVoltage QuasiFermiPotential DisplacementCurrent eCurrent
    hCurrent TotalCurrent Charge OuterVoltage InnerVoltage
    QuasiFermiPotential DisplacementCurrent eCurrent hCurrent TotalCurrent
    Charge ]
}

Data {
      0.00000000000000E+00
      0.00000000000000E+00   0.00000000000000E+00   0.00000000000000E+00   0.00000000000000E+00   4.01163441921724E-08
     -4.01163441921822E-08  -9.83315024680345E-21   9.63415715988668E-14   0.00000000000000E+00   0.00000000000000E+00
      0.00000000000000E+00   0.00000000000000E+00   7.47382418609542E-08  -7.47382418609455E-08   8.70121467357739E-21
     -9.79512195238939E-14
      0.00000000000000E+00
      0.00000000000000E+00   0.00000000000000E+00   0.00000000000000E+00   0.00000000000000E+00   9.19146014136320E-08
     -4.01158777235543E-08   5.17987236900777E-08   9.63415682259733E-14   0.00000000000000E+00   0.00000000000000E+00
      0.00000000000000E+00   0.00000000000000E+00   1.28808910373063E-08  -6.46796147447729E-08  -5.17987237074666E-08
     -9.79512161511482E-14
      0.00000000000000E+00
      0.00000000000000E+00   0.00000000000000E+00   0.00000000000000E+00   0.00000000000000E+00   7.83381728200601E-08
     -1.87181226075514E-19   7.83381728198729E-08   9.63375972946702E-14   0.00000000000000E+00   0.00000000000000E+00
      0.00000000000000E+00   0.00000000000000E+00  -7.83381728163139E-08  -3.58570684665971E-18  -7.83381728198996E-08
     -9.79472442067695E-14
      1.00000000000000E-03
      1.50000000000000E-02   1.50000000000000E-02   0.00000000000000E+00   0.00000000000000E+00   7.90338800465970E-08
     -1.44951337648012E-15   7.90338785970836E-08   9.79465378399637E-14   0.00000000000000E+00   0.00000000000000E+00
      0.00000000000000E+00   0.00000000000000E+00  -7.90338785794491E-08  -1.76062001346979E-17  -7.90338785970553E-08
     -9.95561847531051E-14
      2.00000000000000E-03
      3.00000000000000E-02   3.00000000000000E-02   0.00000000000000E+00   0.00000000000000E+00   7.96189194556638E-08
     -5.27221895635640E-17   7.96189194029416E-08   9.95371387948521E-14   0.00000000000000E+00   0.00000000000000E+00
      0.00000000000000E+00   0.00000000000000E+00  -7.96189194078995E-08   4.94562623229883E-18  -7.96189194029539E-08
     -1.01146785709066E-13
      3.00000000000000E-03
      4.50000000000000E-02   4.50000000000000E-02   0.00000000000000E+00   0.00000000000000E+00   8.01277484232007E-08
     -3.65044293563310E-17   8.01277483866963E-08   1.01110064189935E-13   0.00000000000000E+00   0.00000000000000E+00
      0.00000000000000E+00   0.00000000000000E+00  -8.01277483693268E-08  -1.73895779150035E-17  -8.01277483867163E-08
     -1.02719711105239E-13
      4.00000000000000E-03
      6.00000000000000E-02   6.00000000000000E-02   0.00000000000000E+00   0.00000000000000E+00   8.05847612306115E-08
     -2.46336658169630E-17   8.05847612059778E-08   1.02665938391272E-13   0.00000000000000E+00   0.00000000000000E+00
      0.00000000000000E+00   0.00000000000000E+00  -8.05847612171586E-08   1.11465277248137E-17  -8.05847612060121E-08
     -1.04275585307679E-13
      5.00000000000000E-03
      7.50000000000000E-02   7.50000000000000E-02   0.00000000000000E+00   0.00000000000000E+00   8.10065258964605E-08
     -1.61532663291361E-17   8.10065258803072E-08   1.04205349264449E-13   0.00000000000000E+00   0.00000000000000E+00
      0.00000000000000E+00   0.00000000000000E+00  -8.10065258672032E-08  -1.30907365471645E-17  -8.10065258802939E-08
     -1.05814996181971E-13
      6.00000000000000E-03
      9.00000000000000E-02   9.00000000000000E-02   0.00000000000000E+00   0.00000000000000E+00   8.14036932179827E-08
     -1.02109395836107E-17   8.14036932077718E-08   1.05728851035340E-13   0.00000000000000E+00   0.00000000000000E+00
      0.00000000000000E+00   0.00000000000000E+00  -8.14036932125420E-08   4.76107537350090E-18  -8.14036932077809E-08
     -1.07338497954006E-13
      7.00000000000000E-03
      1.05000000000000E-01   1.05000000000000E-01   0.00000000000000E+00   0.00000000000000E+00   8.17827523079251E-08
     -6.03884053045479E-18   8.17827523018863E-08   1.07236966873925E-13   0.00000000000000E+00   0.00000000000000E+00
      0.00000000000000E+00   0.00000000000000E+00  -8.17827522854744E-08  -1.64047927231526E-17  -8.17827523018792E-08
     -1.08846613793736E-13
      8.00000000000000E-03
      1.20000000000000E-01   1.20000000000000E-01   0.00000000000000E+00   0.00000000000000E+00   8.21475979274546E-08
     -2.99116762366563E-18   8.21475979244634E-08   1.08730191233604E-13   0.00000000000000E+00   0.00000000000000E+00
      0.00000000000000E+00   0.00000000000000E+00  -8.21475979118231E-08  -1.26329231664500E-17  -8.21475979244560E-08
     -1.10339838154578E-13
      9.00000000000000E-03
      1.35000000000000E-01   1.35000000000000E-01   0.00000000000000E+00   0.00000000000000E+00   8.25007580045959E-08
     -5.85185056068395E-19   8.25007580040107E-08   1.10208991980389E-13   0.00000000000000E+00   0.00000000000000E+00
      0.00000000000000E+00   0.00000000000000E+00  -8.25007580359872E-08   3.19499539430793E-17  -8.25007580040372E-08
     -1.11818638902542E-13
      1.00000000000000E-02
      1.50000000000000E-01   1.50000000000000E-01   0.00000000000000E+00   0.00000000000000E+00   8.28441585590124E-08
      1.48360384954202E-18   8.28441585604960E-08   1.11673812341339E-13   0.00000000000000E+00   0.00000000000000E+00
      0.00000000000000E+00   0.00000000000000E+00  -8.28441585564349E-08  -4.04466065534137E-18  -8.28441585604796E-08
     -1.13283459264684E-13
      1.10000000000000E-02
      1.65000000000000E-01   1.65000000000000E-01   0.00000000000000E+00   0.00000000000000E+00   8.31794369159029E-08
      3.36571830702217E-18   8.31794369192686E-08   1.13125072692254E-13   0.00000000000000E+00   0.00000000000000E+00
      0.00000000000000E+00   0.00000000000000E+00  -8.31794369090655E-08  -1.01848601550497E-17  -8.31794369192503E-08
     -1.14734719616812E-13
      1.20000000000000E-02
      1.80000000000000E-01   1.80000000000000E-01   0.00000000000000E+00   0.00000000000000E+00   8.35079514306870E-08
      5.11348622022255E-18   8.35079514358005E-08   1.14563172196019E-13   0.00000000000000E+00   0.00000000000000E+00
      0.00000000000000E+00   0.00000000000000E+00  -8.35079514493619E-08   1.35576599633062E-17  -8.35079514358043E-08
     -1.16172819121783E-13
      1.30000000000000E-02
      1.95000000000000E-01   1.95000000000000E-01   0.00000000000000E+00   0.00000000000000E+00   8.38306943433616E-08
      6.73250645281202E-18   8.38306943500942E-08   1.15988490298632E-13   0.00000000000000E+00   0.00000000000000E+00
      0.00000000000000E+00   0.00000000000000E+00  -8.38306943410826E-08  -9.00478993459381E-18  -8.38306943500874E-08
     -1.17598137225630E-13
      1.40000000000000E-02
      2.10000000000000E-01   2.10000000000000E-01   0.00000000000000E+00   0.00000000000000E+00   8.41482763648661E-08
      8.22443328259198E-18   8.41482763730905E-08   1.17401388090402E-13   0.00000000000000E+00   0.00000000000000E+00
      0.00000000000000E+00   0.00000000000000E+00  -8.41482763825622E-08   9.47376567577336E-18  -8.41482763730885E-08
     -1.19011035018638E-13
      1.50000000000000E-02
      2.25000000000000E-01   2.25000000000000E-01   0.00000000000000E+00   0.00000000000000E+00   8.44610486199638E-08
      9.61148621063155E-18   8.44610486295752E-08   1.18802209543141E-13   0.00000000000000E+00   0.00000000000000E+00
      0.00000000000000E+00   0.00000000000000E+00  -8.44610486226030E-08  -6.97722671140990E-18  -8.44610486295802E-08
     -1.20411856472626E-13
      1.60000000000000E-02
      2.40000000000000E-01   2.40000000000000E-01   0.00000000000000E+00   0.00000000000000E+00   8.47693167964514E-08
      1.09319391038379E-17   8.47693168073834E-08   1.20191282637714E-13   0.00000000000000E+00   0.00000000000000E+00
      0.00000000000000E+00   0.00000000000000E+00  -8.47693168156130E-08   8.22317280800558E-18  -8.47693168073898E-08
     -1.21800929568470E-13
      1.70000000000000E-02
      2.55000000000000E-01   2.55000000000000E-01   0.00000000000000E+00   0.00000000000000E+00   8.50735369829237E-08
      1.22227723439672E-17   8.50735369951465E-08   1.21568920397629E-13   0.00000000000000E+00   0.00000000000000E+00
      0.00000000000000E+00   0.00000000000000E+00  -8.50735369892672E-08  -5.84851971872293E-18  -8.50735369951157E-08
     -1.23178567329652E-13
      1.80000000000000E-02
      2.70000000000000E-01   2.70000000000000E-01   0.00000000000000E+00   0.00000000000000E+00   8.53743906050175E-08
      1.34975909116100E-17   8.53743906185151E-08   1.22935421842548E-13   0.00000000000000E+00   0.00000000000000E+00
      0.00000000000000E+00   0.00000000000000E+00  -8.53743905908689E-08  -2.76403234076045E-17  -8.53743906185092E-08
     -1.24545068775854E-13
      1.90000000000000E-02
      2.85000000000000E-01   2.85000000000000E-01   0.00000000000000E+00   0.00000000000000E+00   8.56727020868673E-08
      1.47415056146204E-17   8.56727021016088E-08   1.24291072871316E-13   0.00000000000000E+00   0.00000000000000E+00
      0.00000000000000E+00   0.00000000000000E+00  -8.56727021062964E-08   4.68392456788889E-18  -8.56727021016124E-08
     -1.25900719805922E-13
      2.00000000000000E-02
      3.00000000000000E-01   3.00000000000000E-01   0.00000000000000E+00   0.00000000000000E+00   8.59692423083159E-08
      1.59138991763540E-17   8.59692423242298E-08   1.25636147079787E-13   0.00000000000000E+00   0.00000000000000E+00
      0.00000000000000E+00   0.00000000000000E+00  -8.59692423134510E-08  -1.07939605730191E-17  -8.59692423242450E-08
     -1.27245794015702E-13
      2.10000000000000E-02
      3.15000000000000E-01   3.15000000000000E-01   0.00000000000000E+00   0.00000000000000E+00   8.62645111564127E-08
      1.69610431268933E-17   8.62645111733738E-08   1.26970906515795E-13   0.00000000000000E+00   0.00000000000000E+00
      0.00000000000000E+00   0.00000000000000E+00  -8.62645111595302E-08  -1.38506272286669E-17  -8.62645111733808E-08
     -1.28580553453018E-13
      2.20000000000000E-02
      3.30000000000000E-01   3.30000000000000E-01   0.00000000000000E+00   0.00000000000000E+00   8.65585958173975E-08
      1.78317623909750E-17   8.65585958352293E-08   1.28295602373083E-13   0.00000000000000E+00   0.00000000000000E+00
      0.00000000000000E+00   0.00000000000000E+00  -8.65585958125268E-08  -2.26710943750727E-17  -8.65585958351979E-08
     -1.29905249311631E-13
      2.30000000000000E-02
      3.45000000000000E-01   3.45000000000000E-01   0.00000000000000E+00   0.00000000000000E+00   8.68511642414666E-08
      1.84919547345425E-17   8.68511642599586E-08   1.29610475627092E-13   0.00000000000000E+00   0.00000000000000E+00
      0.00000000000000E+00   0.00000000000000E+00  -8.68511642488853E-08  -1.10857092045534E-17  -8.68511642599710E-08
     -1.31220122566973E-13
      2.40000000000000E-02
      3.60000000000000E-01   3.60000000000000E-01   0.00000000000000E+00   0.00000000000000E+00   8.71415948907516E-08
      1.89334263748289E-17   8.71415949096850E-08   1.30915757617557E-13   0.00000000000000E+00   0.00000000000000E+00
      0.00000000000000E+00   0.00000000000000E+00  -8.71415949123634E-08   2.68232229786697E-18  -8.71415949096810E-08
     -1.32525404558776E-13
      2.50000000000000E-02
      3.75000000000000E-01   3.75000000000000E-01   0.00000000000000E+00   0.00000000000000E+00   8.74291889723234E-08
      1.91741441141457E-17   8.74291889914975E-08   1.32211670584590E-13   0.00000000000000E+00   0.00000000000000E+00
      0.00000000000000E+00   0.00000000000000E+00  -8.74291889892319E-08  -2.26410572396219E-18  -8.74291889914961E-08
     -1.33821317527157E-13
      2.60000000000000E-02
      3.90000000000000E-01   3.90000000000000E-01   0.00000000000000E+00   0.00000000000000E+00   8.77133824914352E-08
      1.92539196836222E-17   8.77133825106891E-08   1.33498428165560E-13   0.00000000000000E+00   0.00000000000000E+00
      0.00000000000000E+00   0.00000000000000E+00  -8.77133825086322E-08  -2.02668827601113E-18  -8.77133825106589E-08
     -1.35108075109500E-13
      2.70000000000000E-02
      4.05000000000000E-01   4.05000000000000E-01   0.00000000000000E+00   0.00000000000000E+00   8.79938836116007E-08
      1.92178095094031E-17   8.79938836308185E-08   1.34776235859165E-13   0.00000000000000E+00   0.00000000000000E+00
      0.00000000000000E+00   0.00000000000000E+00  -8.79938836439407E-08   1.31206314228187E-17  -8.79938836308201E-08
     -1.36385882804464E-13
      2.80000000000000E-02
      4.20000000000000E-01   4.20000000000000E-01   0.00000000000000E+00   0.00000000000000E+00   8.82706989888880E-08
      1.91055330001351E-17   8.82706990079935E-08   1.36045291461067E-13   0.00000000000000E+00   0.00000000000000E+00
      0.00000000000000E+00   0.00000000000000E+00  -8.82706990009507E-08  -7.07951171641150E-18  -8.82706990080302E-08
     -1.37654938407742E-13
      2.90000000000000E-02
      4.35000000000000E-01   4.35000000000000E-01   0.00000000000000E+00   0.00000000000000E+00   8.85440595454802E-08
      1.89490195417262E-17   8.85440595644292E-08   1.37305785473177E-13   0.00000000000000E+00   0.00000000000000E+00
      0.00000000000000E+00   0.00000000000000E+00  -8.85440595493213E-08  -1.51018942388612E-17  -8.85440595644232E-08
     -1.38915432421240E-13
      3.00000000000000E-02
      4.50000000000000E-01   4.50000000000000E-01   0.00000000000000E+00   0.00000000000000E+00   8.88142919263418E-08
      1.87637827624833E-17   8.88142919451056E-08   1.38557901487056E-13   0.00000000000000E+00   0.00000000000000E+00
      0.00000000000000E+00   0.00000000000000E+00  -8.88142919175656E-08  -2.75615367773734E-17  -8.88142919451271E-08
     -1.40167548436508E-13
      3.10000000000000E-02
      4.65000000000000E-01   4.65000000000000E-01   0.00000000000000E+00   0.00000000000000E+00   8.90816941993384E-08
      1.85519439108857E-17   8.90816942178903E-08   1.39801816541225E-13   0.00000000000000E+00   0.00000000000000E+00
      0.00000000000000E+00   0.00000000000000E+00  -8.90816941991112E-08  -1.87905609021933E-17  -8.90816942179018E-08
     -1.41411463492073E-13
      3.20000000000000E-02
      4.80000000000000E-01   4.80000000000000E-01   0.00000000000000E+00   0.00000000000000E+00   8.93464641709555E-08
      1.83115642147985E-17   8.93464641892671E-08   1.41037701452549E-13   0.00000000000000E+00   0.00000000000000E+00
      0.00000000000000E+00   0.00000000000000E+00  -8.93464641752195E-08  -1.40420552229943E-17  -8.93464641892615E-08
     -1.42647348404813E-13
      3.30000000000000E-02
      4.95000000000000E-01   4.95000000000000E-01   0.00000000000000E+00   0.00000000000000E+00   8.96087026326319E-08
      1.80422205991252E-17   8.96087026506741E-08   1.42265721122764E-13   0.00000000000000E+00   0.00000000000000E+00
      0.00000000000000E+00   0.00000000000000E+00  -8.96087026598551E-08   9.18473979081787E-18  -8.96087026506704E-08
     -1.43875368076430E-13
      3.40000000000000E-02
      5.10000000000000E-01   5.10000000000000E-01   0.00000000000000E+00   0.00000000000000E+00   8.98684820051614E-08
      1.77492959177337E-17   8.98684820229107E-08   1.43486034822323E-13   0.00000000000000E+00   0.00000000000000E+00
      0.00000000000000E+00   0.00000000000000E+00  -8.98684820130796E-08  -9.82419701325157E-18  -8.98684820229038E-08
     -1.45095681777410E-13
      3.50000000000000E-02
      5.25000000000000E-01   5.25000000000000E-01   0.00000000000000E+00   0.00000000000000E+00   9.01259448748338E-08
      1.74444712640864E-17   9.01259448922783E-08   1.44698796454630E-13   0.00000000000000E+00   0.00000000000000E+00
      0.00000000000000E+00   0.00000000000000E+00  -9.01259449079346E-08   1.56370639534270E-17  -9.01259448922976E-08
     -1.46308443411138E-13
      3.60000000000000E-02
      5.40000000000000E-01   5.40000000000000E-01   0.00000000000000E+00   0.00000000000000E+00   9.03813866959616E-08
      1.71437380633946E-17   9.03813867131054E-08   1.45904154803845E-13   0.00000000000000E+00   0.00000000000000E+00
      0.00000000000000E+00   0.00000000000000E+00  -9.03813867089775E-08  -4.09177149814218E-18  -9.03813867130693E-08
     -1.47513801761777E-13
      3.70000000000000E-02
      5.55000000000000E-01   5.55000000000000E-01   0.00000000000000E+00   0.00000000000000E+00   9.06352857231343E-08
      1.68610038567950E-17   9.06352857399953E-08   1.47102253768997E-13   0.00000000000000E+00   0.00000000000000E+00
      0.00000000000000E+00   0.00000000000000E+00  -9.06352857148894E-08  -2.50802114797620E-17  -9.06352857399696E-08
     -1.48711900728359E-13
      3.80000000000000E-02
      5.70000000000000E-01   5.70000000000000E-01   0.00000000000000E+00   0.00000000000000E+00   9.08882657795061E-08
      1.66053444227744E-17   9.08882657961115E-08   1.48293232586050E-13   0.00000000000000E+00   0.00000000000000E+00
      0.00000000000000E+00   0.00000000000000E+00  -9.08882658220999E-08   2.59926048844051E-17  -9.08882657961072E-08
     -1.49902879546854E-13
      3.90000000000000E-02
      5.85000000000000E-01   5.85000000000000E-01   0.00000000000000E+00   0.00000000000000E+00   9.11410031008309E-08
      1.63781327175686E-17   9.11410031172091E-08   1.49477226038501E-13   0.00000000000000E+00   0.00000000000000E+00
      0.00000000000000E+00   0.00000000000000E+00  -9.11410031168792E-08  -3.29063018488650E-19  -9.11410031172083E-08
     -1.51086873000740E-13
      4.00000000000000E-02
      6.00000000000000E-01   6.00000000000000E-01   0.00000000000000E+00   0.00000000000000E+00   9.13941072413212E-08
      1.61730610254706E-17   9.13941072574943E-08   1.50654364656300E-13   0.00000000000000E+00   0.00000000000000E+00
      0.00000000000000E+00   0.00000000000000E+00  -9.13941072571051E-08  -3.99995118038671E-19  -9.13941072575051E-08
     -1.52264011619981E-13
      4.10000000000000E-02
      6.15000000000000E-01   6.15000000000000E-01   0.00000000000000E+00   0.00000000000000E+00   9.16480127643318E-08
      1.59785340527621E-17   9.16480127803103E-08   1.51824774902644E-13   0.00000000000000E+00   0.00000000000000E+00
      0.00000000000000E+00   0.00000000000000E+00  -9.16480127945191E-08   1.42071531918252E-17  -9.16480127803120E-08
     -1.53434421867771E-13
      4.20000000000000E-02
      6.30000000000000E-01   6.30000000000000E-01   0.00000000000000E+00   0.00000000000000E+00   9.19029130832716E-08
      1.57818191021901E-17   9.19029130990535E-08   1.52988579348340E-13   0.00000000000000E+00   0.00000000000000E+00
      0.00000000000000E+00   0.00000000000000E+00  -9.19029130940802E-08  -5.00277757516683E-18  -9.19029130990830E-08
     -1.54598226314915E-13
      4.30000000000000E-02
      6.45000000000000E-01   6.45000000000000E-01   0.00000000000000E+00   0.00000000000000E+00   9.21587533985501E-08
      1.55730724841804E-17   9.21587534141231E-08   1.54145896833935E-13   0.00000000000000E+00   0.00000000000000E+00
      0.00000000000000E+00   0.00000000000000E+00  -9.21587534309315E-08   1.67920800997051E-17  -9.21587534141394E-08
     -1.55755543801956E-13
      4.40000000000000E-02
      6.60000000000000E-01   6.60000000000000E-01   0.00000000000000E+00   0.00000000000000E+00   9.24152808918726E-08
      1.53482207866757E-17   9.24152809072209E-08   1.55296842620564E-13   0.00000000000000E+00   0.00000000000000E+00
      0.00000000000000E+00   0.00000000000000E+00  -9.24152809143528E-08   7.13266247329066E-18  -9.24152809072202E-08
     -1.56906489590039E-13
      4.50000000000000E-02
      6.75000000000000E-01   6.75000000000000E-01   0.00000000000000E+00   0.00000000000000E+00   9.26721329338057E-08
      1.51097768080904E-17   9.26721329489155E-08   1.56441528530902E-13   0.00000000000000E+00   0.00000000000000E+00
      0.00000000000000E+00   0.00000000000000E+00  -9.26721329486168E-08  -2.76140138453889E-19  -9.26721329488929E-08
     -1.58051175501827E-13
      4.60000000000000E-02
      6.90000000000001E-01   6.90000000000001E-01   0.00000000000000E+00   0.00000000000000E+00   9.29289337494064E-08
      1.48639322049573E-17   9.29289337642704E-08   1.57580063082024E-13   0.00000000000000E+00   0.00000000000000E+00
      0.00000000000000E+00   0.00000000000000E+00  -9.29289337643252E-08   5.72354272289092E-20  -9.29289337642679E-08
     -1.59189710054399E-13
      4.70000000000000E-02
      7.05000000000001E-01   7.05000000000001E-01   0.00000000000000E+00   0.00000000000000E+00   9.31853699538213E-08
      1.46247811801111E-17   9.31853699684461E-08   1.58712551611825E-13   0.00000000000000E+00   0.00000000000000E+00
      0.00000000000000E+00   0.00000000000000E+00  -9.31853699792792E-08   1.08105006482417E-17  -9.31853699684687E-08
     -1.60322198585660E-13
      4.80000000000000E-02
      7.20000000000001E-01   7.20000000000001E-01   0.00000000000000E+00   0.00000000000000E+00   9.34412257048335E-08
      1.43984119882292E-17   9.34412257192319E-08   1.59839096400162E-13   0.00000000000000E+00   0.00000000000000E+00
      0.00000000000000E+00   0.00000000000000E+00  -9.34412257265115E-08   7.27633088365622E-18  -9.34412257192352E-08
     -1.61448743375454E-13
      4.90000000000000E-02
      7.35000000000001E-01   7.35000000000001E-01   0.00000000000000E+00   0.00000000000000E+00   9.36963731807154E-08
      1.41929467463399E-17   9.36963731949083E-08   1.60959796785365E-13   0.00000000000000E+00   0.00000000000000E+00
      0.00000000000000E+00   0.00000000000000E+00  -9.36963732142645E-08   1.93542405475915E-17  -9.36963731949102E-08
     -1.62569443762102E-13
      5.00000000000000E-02
      7.50000000000001E-01   7.50000000000001E-01   0.00000000000000E+00   0.00000000000000E+00   9.39507288662351E-08
      1.40085613489821E-17   9.39507288802436E-08   1.62074749276100E-13   0.00000000000000E+00   0.00000000000000E+00
      0.00000000000000E+00   0.00000000000000E+00  -9.39507288899709E-08   9.72547598709528E-18  -9.39507288802454E-08
     -1.63684396254298E-13
      5.10000000000000E-02
      7.65000000000001E-01   7.65000000000001E-01   0.00000000000000E+00   0.00000000000000E+00   9.42041954599359E-08
      1.38420138518022E-17   9.42041954737780E-08   1.63184047658252E-13   0.00000000000000E+00   0.00000000000000E+00
      0.00000000000000E+00   0.00000000000000E+00  -9.42041955231378E-08   4.93966904500965E-17  -9.42041954737411E-08
     -1.64793694637895E-13
      5.20000000000000E-02
      7.80000000000001E-01   7.80000000000001E-01   0.00000000000000E+00   0.00000000000000E+00   9.44566118567512E-08
      1.36870351861062E-17   9.44566118704382E-08   1.64287783096417E-13   0.00000000000000E+00   0.00000000000000E+00
      0.00000000000000E+00   0.00000000000000E+00  -9.44566119234694E-08   5.30547404288278E-17  -9.44566118704147E-08
     -1.65897430077511E-13
      5.30000000000000E-02
      7.95000000000001E-01   7.95000000000001E-01   0.00000000000000E+00   0.00000000000000E+00   9.47077294347105E-08
      1.35366200660387E-17   9.47077294482471E-08   1.65386044229673E-13   0.00000000000000E+00   0.00000000000000E+00
      0.00000000000000E+00   0.00000000000000E+00  -9.47077294608704E-08   1.26314498268278E-17  -9.47077294482389E-08
     -1.66995691212214E-13
      5.40000000000000E-02
      8.10000000000001E-01   8.10000000000001E-01   0.00000000000000E+00   0.00000000000000E+00   9.49572239514337E-08
      1.33851125602997E-17   9.49572239648188E-08   1.66478917261722E-13   0.00000000000000E+00   0.00000000000000E+00
      0.00000000000000E+00   0.00000000000000E+00  -9.49572239830488E-08   1.82300416631860E-17  -9.49572239648187E-08
     -1.68088564245716E-13
      5.50000000000000E-02
      8.25000000000001E-01   8.25000000000001E-01   0.00000000000000E+00   0.00000000000000E+00   9.52047410839856E-08
      1.32298452655463E-17   9.52047410972154E-08   1.67566486045719E-13   0.00000000000000E+00   0.00000000000000E+00
      0.00000000000000E+00   0.00000000000000E+00  -9.52047411006088E-08   3.39736930059086E-18  -9.52047410972114E-08
     -1.69176133031160E-13
      5.60000000000000E-02
      8.40000000000001E-01   8.40000000000001E-01   0.00000000000000E+00   0.00000000000000E+00   9.54499631528895E-08
      1.30717769314789E-17   9.54499631659613E-08   1.68648832164611E-13   0.00000000000000E+00   0.00000000000000E+00
      0.00000000000000E+00   0.00000000000000E+00  -9.54499631692583E-08   3.32195961165775E-18  -9.54499631659363E-08
     -1.70258479151496E-13
      5.70000000000000E-02
      8.55000000000001E-01   8.55000000000001E-01   0.00000000000000E+00   0.00000000000000E+00   9.56926780247896E-08
      1.29153268609222E-17   9.56926780377050E-08   1.69726035007827E-13   0.00000000000000E+00   0.00000000000000E+00
      0.00000000000000E+00   0.00000000000000E+00  -9.56926780404271E-08   2.71949653809574E-18  -9.56926780377076E-08
     -1.71335681996156E-13
      5.80000000000000E-02
      8.70000000000001E-01   8.70000000000001E-01   0.00000000000000E+00   0.00000000000000E+00   9.59328307001529E-08
      1.27657977700401E-17   9.59328307129187E-08   1.70798171845323E-13   0.00000000000000E+00   0.00000000000000E+00
      0.00000000000000E+00   0.00000000000000E+00  -9.59328307121714E-08  -7.14885000161667E-19  -9.59328307128862E-08
     -1.72407818835084E-13
      5.90000000000000E-02
      8.85000000000001E-01   8.85000000000001E-01   0.00000000000000E+00   0.00000000000000E+00   9.61705436542307E-08
      1.26288603485661E-17   9.61705436668596E-08   1.71865317899530E-13   0.00000000000000E+00   0.00000000000000E+00
      0.00000000000000E+00   0.00000000000000E+00  -9.61705436926627E-08   2.58082558733092E-17  -9.61705436668544E-08
     -1.73474964890728E-13
      6.00000000000000E-02
      9.00000000000001E-01   9.00000000000001E-01   0.00000000000000E+00   0.00000000000000E+00   9.64061013919607E-08
      1.25083985369347E-17   9.64061014044691E-08   1.72927546415617E-13   0.00000000000000E+00   0.00000000000000E+00
      0.00000000000000E+00   0.00000000000000E+00  -9.64061014246139E-08   2.01456121037173E-17  -9.64061014044682E-08
     -1.74537193408242E-13
      6.10000000000000E-02
      9.15000000000001E-01   9.15000000000001E-01   0.00000000000000E+00   0.00000000000000E+00   9.66399045635719E-08
      1.24052973348695E-17   9.66399045759773E-08   1.73984928729959E-13   0.00000000000000E+00   0.00000000000000E+00
      0.00000000000000E+00   0.00000000000000E+00  -9.66399046055859E-08   2.96140018542000E-17  -9.66399045759719E-08
     -1.75594575724008E-13
      6.20000000000000E-02
      9.30000000000001E-01   9.30000000000001E-01   0.00000000000000E+00   0.00000000000000E+00   9.68724064266466E-08
      1.23172462922911E-17   9.68724064389638E-08   1.75037534336522E-13   0.00000000000000E+00   0.00000000000000E+00
      0.00000000000000E+00   0.00000000000000E+00  -9.68724064652858E-08   2.63399526948366E-17  -9.68724064389458E-08
     -1.76647181331996E-13
      6.30000000000000E-02
      9.45000000000001E-01   9.45000000000001E-01   0.00000000000000E+00   0.00000000000000E+00   9.71040478362142E-08
      1.22391998981898E-17   9.71040478484534E-08   1.76085430950779E-13   0.00000000000000E+00   0.00000000000000E+00
      0.00000000000000E+00   0.00000000000000E+00  -9.71040478569006E-08   8.39438747590969E-18  -9.71040478485063E-08
     -1.77695077947673E-13
      6.40000000000000E-02
      9.60000000000001E-01   9.60000000000001E-01   0.00000000000000E+00   0.00000000000000E+00   9.73352060777425E-08
      1.21646455992506E-17   9.73352060899072E-08   1.77128684570701E-13   0.00000000000000E+00   0.00000000000000E+00
      0.00000000000000E+00   0.00000000000000E+00  -9.73352060800484E-08  -9.81551577714259E-18  -9.73352060898639E-08
     -1.78738331569002E-13
      6.50000000000000E-02
      9.75000000000001E-01   9.75000000000001E-01   0.00000000000000E+00   0.00000000000000E+00   9.75661684145814E-08
      1.20870249804739E-17   9.75661684266684E-08   1.78167359534665E-13   0.00000000000000E+00   0.00000000000000E+00
      0.00000000000000E+00   0.00000000000000E+00  -9.75661684469545E-08   2.02676988087632E-17  -9.75661684266868E-08
     -1.79777006534373E-13
      6.60000000000000E-02
      9.90000000000001E-01   9.90000000000001E-01   0.00000000000000E+00   0.00000000000000E+00   9.77971344524817E-08
      1.20004725138005E-17   9.77971344644822E-08   1.79201518576239E-13   0.00000000000000E+00   0.00000000000000E+00
      0.00000000000000E+00   0.00000000000000E+00  -9.77971344672316E-08   2.77493078372638E-18  -9.77971344644567E-08
     -1.80811165577345E-13
      6.70000000000000E-02
      1.00500000000000E+00   1.00500000000000E+00   0.00000000000000E+00   0.00000000000000E+00   9.80282434836525E-08
      1.19043769857485E-17   9.80282434955569E-08   1.80231222876114E-13   0.00000000000000E+00   0.00000000000000E+00
      0.00000000000000E+00   0.00000000000000E+00  -9.80282435082339E-08   1.26622779543785E-17  -9.80282434955716E-08
     -1.81840869878607E-13
      6.80000000000000E-02
      1.02000000000000E+00   1.02000000000000E+00   0.00000000000000E+00   0.00000000000000E+00   9.82596173425949E-08
      1.18002209986867E-17   9.82596173543951E-08   1.81256532111597E-13   0.00000000000000E+00   0.00000000000000E+00
      0.00000000000000E+00   0.00000000000000E+00  -9.82596173628064E-08   8.36732040025752E-18  -9.82596173544391E-08
     -1.82866179115479E-13
      6.90000000000000E-02