DF-ISE text

Info {
  version   = 1.0
  type      = xyplot
  datasets  = [
    "time"
    "ntype OuterVoltage" "ntype InnerVoltage" "ntype QuasiFermiPotential" "ntype DisplacementCurrent" "ntype eCurrent"
    "ntype hCurrent" "ntype TotalCurrent" "ntype Charge" "ptype OuterVoltage" "ptype InnerVoltage"
    "ptype QuasiFermiPotential" "ptype DisplacementCurrent" "ptype eCurrent" "ptype hCurrent" "ptype TotalCurrent"
    "ptype Charge" ]
  functions = [
    Time
    OuterVoltage InnerVoltage QuasiFermiPotential DisplacementCurrent eCurrent
    hCurrent TotalCurrent Charge OuterVoltage InnerVoltage
    QuasiFermiPotential DisplacementCurrent eCurrent hCurrent TotalCurrent
    Charge ]
}

Data {
      0.00000000000000E+00
      0.00000000000000E+00   0.00000000000000E+00   0.00000000000000E+00   0.00000000000000E+00   2.38307460645436E-07
     -2.38307460645430E-07   6.60151738889089E-21   9.61368062516040E-14   0.00000000000000E+00   0.00000000000000E+00
      0.00000000000000E+00   0.00000000000000E+00   7.50287379784274E-07  -7.50287379784298E-07  -2.41940427865111E-20
     -9.82202150079836E-14
      0.00000000000000E+00
      0.00000000000000E+00   0.00000000000000E+00   0.00000000000000E+00   0.00000000000000E+00   7.58928853999691E-07
     -2.38303526623209E-07   5.20625327376483E-07   9.61367549992724E-14   0.00000000000000E+00   0.00000000000000E+00
      0.00000000000000E+00   0.00000000000000E+00   1.29084511832548E-07  -6.49709839662982E-07  -5.20625327830434E-07
     -9.82201637576739E-14
      0.00000000000000E+00
      0.00000000000000E+00   0.00000000000000E+00   0.00000000000000E+00   0.00000000000000E+00   7.02381626350075E-07
      5.68735520302333E-23   7.02381626350075E-07   9.61012458506231E-14   0.00000000000000E+00   0.00000000000000E+00
      0.00000000000000E+00   0.00000000000000E+00  -7.02381626362877E-07   1.27944126063976E-17  -7.02381626350083E-07
     -9.81846437596338E-14
      1.00000000000000E-03
      1.50000000000000E-02   1.50000000000000E-02   0.00000000000000E+00   0.00000000000000E+00   7.03868677226347E-07
     -1.00117198421505E-15   7.03868676225175E-07   9.77034324019693E-14   0.00000000000000E+00   0.00000000000000E+00
      0.00000000000000E+00   0.00000000000000E+00  -7.03868676234279E-07   9.09562547504953E-18  -7.03868676225184E-07
     -9.97868303167633E-14
      2.00000000000000E-03
      3.00000000000000E-02   3.00000000000000E-02   0.00000000000000E+00   0.00000000000000E+00   7.05240569871647E-07
     -6.28952693771061E-17   7.05240569808752E-07   9.92869543556940E-14   0.00000000000000E+00   0.00000000000000E+00
      0.00000000000000E+00   0.00000000000000E+00  -7.05240569822104E-07   1.33616504210443E-17  -7.05240569808743E-07
     -1.01370352276722E-13
      3.00000000000000E-03
      4.50000000000000E-02   4.50000000000000E-02   0.00000000000000E+00   0.00000000000000E+00   7.06530001645601E-07
     -4.14147534392796E-17   7.06530001604186E-07   1.00852472791178E-13   0.00000000000000E+00   0.00000000000000E+00
      0.00000000000000E+00   0.00000000000000E+00  -7.06530001570676E-07  -3.35031444801980E-17  -7.06530001604179E-07
     -1.02935870718790E-13
      4.00000000000000E-03
      6.00000000000000E-02   6.00000000000000E-02   0.00000000000000E+00   0.00000000000000E+00   7.07760479802627E-07
     -2.71754333318518E-17   7.07760479775451E-07   1.02400608223647E-13   0.00000000000000E+00   0.00000000000000E+00
      0.00000000000000E+00   0.00000000000000E+00  -7.07760479777016E-07   1.57598598263742E-18  -7.07760479775440E-07
     -1.04484006158129E-13
      5.00000000000000E-03
      7.50000000000000E-02   7.50000000000000E-02   0.00000000000000E+00   0.00000000000000E+00   7.08948570900680E-07
     -1.78092156222736E-17   7.08948570882870E-07   1.03931943905829E-13   0.00000000000000E+00   0.00000000000000E+00
      0.00000000000000E+00   0.00000000000000E+00  -7.08948570921970E-07   3.91267966153290E-17  -7.08948570882843E-07
     -1.06015341847417E-13
      6.00000000000000E-03
      9.00000000000000E-02   9.00000000000000E-02   0.00000000000000E+00   0.00000000000000E+00   7.10105490823640E-07
     -1.16397302225842E-17   7.10105490812000E-07   1.05447028817375E-13   0.00000000000000E+00   0.00000000000000E+00
      0.00000000000000E+00   0.00000000000000E+00  -7.10105490818272E-07   6.27990975467314E-18  -7.10105490811992E-07
     -1.07530426766273E-13
      7.00000000000000E-03
      1.05000000000000E-01   1.05000000000000E-01   0.00000000000000E+00   0.00000000000000E+00   7.11238402990202E-07
     -7.43860470581133E-18   7.11238402982764E-07   1.06946380362958E-13   0.00000000000000E+00   0.00000000000000E+00
      0.00000000000000E+00   0.00000000000000E+00  -7.11238402961952E-07  -2.08281070006127E-17  -7.11238402982780E-07
     -1.09029778319351E-13
      8.00000000000000E-03
      1.20000000000000E-01   1.20000000000000E-01   0.00000000000000E+00   0.00000000000000E+00   7.12351638079167E-07
     -4.25483868821126E-18   7.12351638074912E-07   1.08430486803452E-13   0.00000000000000E+00   0.00000000000000E+00
      0.00000000000000E+00   0.00000000000000E+00  -7.12351638051231E-07  -2.36658236049366E-17  -7.12351638074897E-07
     -1.10513884767507E-13
      9.00000000000000E-03
      1.35000000000000E-01   1.35000000000000E-01   0.00000000000000E+00   0.00000000000000E+00   7.13447851904839E-07
     -1.36955688516331E-18   7.13447851903469E-07   1.09899809450341E-13   0.00000000000000E+00   0.00000000000000E+00
      0.00000000000000E+00   0.00000000000000E+00  -7.13447851911945E-07   8.50569645403319E-18  -7.13447851903439E-07
     -1.11983207422210E-13
      1.00000000000000E-02
      1.50000000000000E-01   1.50000000000000E-01   0.00000000000000E+00   0.00000000000000E+00   7.14528988721498E-07
      1.57781169883578E-18   7.14528988723076E-07   1.11354784656642E-13   0.00000000000000E+00   0.00000000000000E+00
      0.00000000000000E+00   0.00000000000000E+00  -7.14528988757146E-07   3.40853290648500E-17  -7.14528988723061E-07
     -1.13438182636484E-13
      1.10000000000000E-02
      1.65000000000000E-01   1.65000000000000E-01   0.00000000000000E+00   0.00000000000000E+00   7.15596883540341E-07
      4.96956257481508E-18   7.15596883545310E-07   1.12795825635365E-13   0.00000000000000E+00   0.00000000000000E+00
      0.00000000000000E+00   0.00000000000000E+00  -7.15596883566057E-07   2.07502142428358E-17  -7.15596883545307E-07
     -1.14879223623325E-13
      1.20000000000000E-02
      1.80000000000000E-01   1.80000000000000E-01   0.00000000000000E+00   0.00000000000000E+00   7.16653454363390E-07
      8.60762973312797E-18   7.16653454371997E-07   1.14223324127828E-13   0.00000000000000E+00   0.00000000000000E+00
      0.00000000000000E+00   0.00000000000000E+00  -7.16653454378538E-07   6.52941536928472E-18  -7.16653454372008E-07
     -1.16306722124037E-13
      1.30000000000000E-02
      1.95000000000000E-01   1.95000000000000E-01   0.00000000000000E+00   0.00000000000000E+00   7.17700568638660E-07
      1.22163335996968E-17   7.17700568650876E-07   1.15637651935351E-13   0.00000000000000E+00   0.00000000000000E+00
      0.00000000000000E+00   0.00000000000000E+00  -7.17700568675990E-07   2.51228156952106E-17  -7.17700568650867E-07
     -1.17721049939945E-13
      1.40000000000000E-02
      2.10000000000000E-01   2.10000000000000E-01   0.00000000000000E+00   0.00000000000000E+00   7.18739771734352E-07
      1.55385376398468E-17   7.18739771749891E-07   1.17039162321387E-13   0.00000000000000E+00   0.00000000000000E+00
      0.00000000000000E+00   0.00000000000000E+00  -7.18739771768124E-07   1.82434222534402E-17  -7.18739771749881E-07
     -1.19122560334490E-13
      1.50000000000000E-02
      2.25000000000000E-01   2.25000000000000E-01   0.00000000000000E+00   0.00000000000000E+00   7.19772076833707E-07
      1.83176964663157E-17   7.19772076852025E-07   1.18428191289300E-13   0.00000000000000E+00   0.00000000000000E+00
      0.00000000000000E+00   0.00000000000000E+00  -7.19772076868429E-07   1.64180319597548E-17  -7.19772076852011E-07
     -1.20511589311027E-13
      1.60000000000000E-02
      2.40000000000000E-01   2.40000000000000E-01   0.00000000000000E+00   0.00000000000000E+00   7.20797936369044E-07
      2.04807571997468E-17   7.20797936389524E-07   1.19805058743354E-13   0.00000000000000E+00   0.00000000000000E+00
      0.00000000000000E+00   0.00000000000000E+00  -7.20797936337596E-07  -5.19044712343678E-17  -7.20797936389501E-07
     -1.21888456773827E-13
      1.70000000000000E-02
      2.55000000000000E-01   2.55000000000000E-01   0.00000000000000E+00   0.00000000000000E+00   7.21817398061342E-07
      2.20692130960589E-17   7.21817398083411E-07   1.21170069544442E-13   0.00000000000000E+00   0.00000000000000E+00
      0.00000000000000E+00   0.00000000000000E+00  -7.21817398041568E-07  -4.18246244031129E-17  -7.21817398083393E-07
     -1.23253467583765E-13
      1.80000000000000E-02
      2.70000000000000E-01   2.70000000000000E-01   0.00000000000000E+00   0.00000000000000E+00   7.22830356895700E-07
      2.31996013711412E-17   7.22830356918900E-07   1.22523514474715E-13   0.00000000000000E+00   0.00000000000000E+00
      0.00000000000000E+00   0.00000000000000E+00  -7.22830356953550E-07   3.46357389108601E-17  -7.22830356918914E-07
     -1.24606912523010E-13
      1.90000000000000E-02
      2.85000000000000E-01   2.85000000000000E-01   0.00000000000000E+00   0.00000000000000E+00   7.23836774188656E-07
      2.40026232868023E-17   7.23836774212659E-07   1.23865671125598E-13   0.00000000000000E+00   0.00000000000000E+00
      0.00000000000000E+00   0.00000000000000E+00  -7.23836774178600E-07  -3.40342732860453E-17  -7.23836774212634E-07
     -1.25949069182972E-13
      2.00000000000000E-02
      3.00000000000000E-01   3.00000000000000E-01   0.00000000000000E+00   0.00000000000000E+00   7.24836772033247E-07
      2.45143740056812E-17   7.24836772057761E-07   1.25196804720757E-13   0.00000000000000E+00   0.00000000000000E+00
      0.00000000000000E+00   0.00000000000000E+00  -7.24836772076181E-07   1.84261810739005E-17  -7.24836772057755E-07
     -1.27280202787312E-13
      2.10000000000000E-02
      3.15000000000000E-01   3.15000000000000E-01   0.00000000000000E+00   0.00000000000000E+00   7.25830586102652E-07
      2.49190254805515E-17   7.25830586127571E-07   1.26517168881322E-13   0.00000000000000E+00   0.00000000000000E+00
      0.00000000000000E+00   0.00000000000000E+00  -7.25830586104255E-07  -2.32850250936168E-17  -7.25830586127540E-07
     -1.28600566957162E-13
      2.20000000000000E-02
      3.30000000000000E-01   3.30000000000000E-01   0.00000000000000E+00   0.00000000000000E+00   7.26818427651443E-07
      2.51684520542477E-17   7.26818427676612E-07   1.27827006337045E-13   0.00000000000000E+00   0.00000000000000E+00
      0.00000000000000E+00   0.00000000000000E+00  -7.26818427676599E-07  -5.04154135594387E-21  -7.26818427676604E-07
     -1.29910404422274E-13
      2.30000000000000E-02
      3.45000000000000E-01   3.45000000000000E-01   0.00000000000000E+00   0.00000000000000E+00   7.27800355230826E-07
      2.52610312610295E-17   7.27800355256087E-07   1.29126549584551E-13   0.00000000000000E+00   0.00000000000000E+00
      0.00000000000000E+00   0.00000000000000E+00  -7.27800355266268E-07   1.02106818327879E-17  -7.27800355256057E-07
     -1.31209947679264E-13
      2.40000000000000E-02
      3.60000000000000E-01   3.60000000000000E-01   0.00000000000000E+00   0.00000000000000E+00   7.28776220730059E-07
      2.52034448150572E-17   7.28776220755263E-07   1.30416021494890E-13   0.00000000000000E+00   0.00000000000000E+00
      0.00000000000000E+00   0.00000000000000E+00  -7.28776220716547E-07  -3.87322372797908E-17  -7.28776220755279E-07
     -1.32499419599183E-13
      2.50000000000000E-02
      3.75000000000000E-01   3.75000000000000E-01   0.00000000000000E+00   0.00000000000000E+00   7.29745731317494E-07
      2.49761200799955E-17   7.29745731342470E-07   1.31695635873271E-13   0.00000000000000E+00   0.00000000000000E+00
      0.00000000000000E+00   0.00000000000000E+00  -7.29745731325336E-07  -1.71088754356129E-17  -7.29745731342445E-07
     -1.33779033987238E-13
      2.60000000000000E-02
      3.90000000000000E-01   3.90000000000000E-01   0.00000000000000E+00   0.00000000000000E+00   7.30708602038198E-07
      2.47249236081106E-17   7.30708602062922E-07   1.32965597976206E-13   0.00000000000000E+00   0.00000000000000E+00
      0.00000000000000E+00   0.00000000000000E+00  -7.30708602050884E-07  -1.19947998662097E-17  -7.30708602062879E-07
     -1.35048996099934E-13
      2.70000000000000E-02
      4.05000000000000E-01   4.05000000000000E-01   0.00000000000000E+00   0.00000000000000E+00   7.31664736430915E-07
      2.44472465741306E-17   7.31664736455362E-07   1.34226104992298E-13   0.00000000000000E+00   0.00000000000000E+00
      0.00000000000000E+00   0.00000000000000E+00  -7.31664736437861E-07  -1.74681031082835E-17  -7.31664736455329E-07
     -1.36309503125880E-13
      2.80000000000000E-02
      4.20000000000000E-01   4.20000000000000E-01   0.00000000000000E+00   0.00000000000000E+00   7.32614356950131E-07
      2.41863805520622E-17   7.32614356974317E-07   1.35477346493067E-13   0.00000000000000E+00   0.00000000000000E+00
      0.00000000000000E+00   0.00000000000000E+00  -7.32614356960149E-07  -1.41142628923209E-17  -7.32614356974264E-07
     -1.37560744636588E-13
      2.90000000000000E-02
      4.35000000000000E-01   4.35000000000000E-01   0.00000000000000E+00   0.00000000000000E+00   7.33558030736572E-07
      2.39646969645520E-17   7.33558030760537E-07   1.36719504858773E-13   0.00000000000000E+00   0.00000000000000E+00
      0.00000000000000E+00   0.00000000000000E+00  -7.33558030760881E-07   3.51819515899317E-19  -7.33558030760529E-07
     -1.38802903012314E-13
      3.00000000000000E-02
      4.50000000000000E-01   4.50000000000000E-01   0.00000000000000E+00   0.00000000000000E+00   7.34496584275143E-07
      2.37454374392138E-17   7.34496584298888E-07   1.37952755681853E-13   0.00000000000000E+00   0.00000000000000E+00
      0.00000000000000E+00   0.00000000000000E+00  -7.34496584288399E-07  -1.04902648259490E-17  -7.34496584298890E-07
     -1.40036153845481E-13
      3.10000000000000E-02
      4.65000000000000E-01   4.65000000000000E-01   0.00000000000000E+00   0.00000000000000E+00   7.35430941295135E-07
      2.35842239048988E-17   7.35430941318719E-07   1.39177268148778E-13   0.00000000000000E+00   0.00000000000000E+00
      0.00000000000000E+00   0.00000000000000E+00  -7.35430941313825E-07  -4.87000337038304E-18  -7.35430941318695E-07
     -1.41260666322572E-13
      3.20000000000000E-02
      4.80000000000000E-01   4.80000000000000E-01   0.00000000000000E+00   0.00000000000000E+00   7.36361944076248E-07
      2.34188047992430E-17   7.36361944099667E-07   1.40393205399920E-13   0.00000000000000E+00   0.00000000000000E+00
      0.00000000000000E+00   0.00000000000000E+00  -7.36361944069054E-07  -3.05907486418730E-17  -7.36361944099645E-07
     -1.42476603583937E-13
      3.30000000000000E-02
      4.95000000000000E-01   4.95000000000000E-01   0.00000000000000E+00   0.00000000000000E+00   7.37290223324589E-07
      2.31984098955408E-17   7.37290223347787E-07   1.41600724866777E-13   0.00000000000000E+00   0.00000000000000E+00
      0.00000000000000E+00   0.00000000000000E+00  -7.37290223399898E-07   5.21413349483092E-17  -7.37290223347756E-07
     -1.43684123061076E-13
      3.40000000000000E-02
      5.10000000000000E-01   5.10000000000000E-01   0.00000000000000E+00   0.00000000000000E+00   7.38216149639499E-07
      2.29594323603430E-17   7.38216149662459E-07   1.42799978586993E-13   0.00000000000000E+00   0.00000000000000E+00
      0.00000000000000E+00   0.00000000000000E+00  -7.38216149668948E-07   6.52814730864160E-18  -7.38216149662420E-07
     -1.44883376791624E-13
      3.50000000000000E-02
      5.25000000000000E-01   5.25000000000000E-01   0.00000000000000E+00   0.00000000000000E+00   7.39139869845553E-07
      2.26936910091338E-17   7.39139869868247E-07   1.43991113498678E-13   0.00000000000000E+00   0.00000000000000E+00
      0.00000000000000E+00   0.00000000000000E+00  -7.39139869875781E-07   7.52236628999619E-18  -7.39139869868259E-07
     -1.46074511713688E-13
      3.60000000000000E-02
      5.40000000000000E-01   5.40000000000000E-01   0.00000000000000E+00   0.00000000000000E+00   7.40061410489212E-07
      2.23333786954719E-17   7.40061410511545E-07   1.45174271716080E-13   0.00000000000000E+00   0.00000000000000E+00
      0.00000000000000E+00   0.00000000000000E+00  -7.40061410448375E-07  -6.31509397045293E-17  -7.40061410511526E-07
     -1.47257669941512E-13
      3.70000000000000E-02
      5.55000000000000E-01   5.55000000000000E-01   0.00000000000000E+00   0.00000000000000E+00   7.40980785390760E-07
      2.20749087882158E-17   7.40980785412835E-07   1.46349590790178E-13   0.00000000000000E+00   0.00000000000000E+00
      0.00000000000000E+00   0.00000000000000E+00  -7.40980785442116E-07   2.92754969441040E-17  -7.40980785412840E-07
     -1.48432989026074E-13
      3.80000000000000E-02
      5.70000000000000E-01   5.70000000000000E-01   0.00000000000000E+00   0.00000000000000E+00   7.41898072641521E-07
      2.18462981708326E-17   7.41898072663367E-07   1.47517203956384E-13   0.00000000000000E+00   0.00000000000000E+00
      0.00000000000000E+00   0.00000000000000E+00  -7.41898072684889E-07   2.15299306836265E-17  -7.41898072663359E-07
     -1.49600602202786E-13
      3.90000000000000E-02
      5.85000000000000E-01   5.85000000000000E-01   0.00000000000000E+00   0.00000000000000E+00   7.42813425499131E-07
      2.16391385021270E-17   7.42813425520770E-07   1.48677240371305E-13   0.00000000000000E+00   0.00000000000000E+00
      0.00000000000000E+00   0.00000000000000E+00  -7.42813425512127E-07  -8.65151049514558E-18  -7.42813425520779E-07
     -1.50760638628247E-13
      4.00000000000000E-02
      6.00000000000000E-01   6.00000000000000E-01   0.00000000000000E+00   0.00000000000000E+00   7.43727018664625E-07
      2.14824753245144E-17   7.43727018686107E-07   1.49829825338902E-13   0.00000000000000E+00   0.00000000000000E+00
      0.00000000000000E+00   0.00000000000000E+00  -7.43727018708863E-07   2.27704722550213E-17  -7.43727018686093E-07
     -1.51913223606415E-13
      4.10000000000000E-02
      6.15000000000000E-01   6.15000000000000E-01   0.00000000000000E+00   0.00000000000000E+00   7.44638957099681E-07
      2.13459307018307E-17   7.44638957121027E-07   1.50975080525243E-13   0.00000000000000E+00   0.00000000000000E+00
      0.00000000000000E+00   0.00000000000000E+00  -7.44638957136118E-07   1.51239108939941E-17  -7.44638957120994E-07
     -1.53058478803349E-13
      4.20000000000000E-02
      6.30000000000000E-01   6.30000000000000E-01   0.00000000000000E+00   0.00000000000000E+00   7.45549187129840E-07
      2.12119871750166E-17   7.45549187151052E-07   1.52113124160435E-13   0.00000000000000E+00   0.00000000000000E+00
      0.00000000000000E+00   0.00000000000000E+00  -7.45549187144505E-07  -6.53419455517243E-18  -7.45549187151039E-07
     -1.54196522449155E-13
      4.30000000000000E-02
      6.45000000000000E-01   6.45000000000000E-01   0.00000000000000E+00   0.00000000000000E+00   7.46457444176814E-07
      2.10661005398046E-17   7.46457444197880E-07   1.53244071226333E-13   0.00000000000000E+00   0.00000000000000E+00
      0.00000000000000E+00   0.00000000000000E+00  -7.46457444204014E-07   6.16612341814334E-18  -7.46457444197848E-07
     -1.55327469525683E-13
      4.40000000000000E-02
      6.60000000000000E-01   6.60000000000000E-01   0.00000000000000E+00   0.00000000000000E+00   7.47363261243890E-07
      2.09014972067773E-17   7.47363261264792E-07   1.54368033628874E-13   0.00000000000000E+00   0.00000000000000E+00
      0.00000000000000E+00   0.00000000000000E+00  -7.47363261254484E-07  -1.02943807730893E-17  -7.47363261264778E-07
     -1.56451431938877E-13
      4.50000000000000E-02
      6.75000000000000E-01   6.75000000000000E-01   0.00000000000000E+00   0.00000000000000E+00   7.48266040115212E-07
      2.05920433497704E-17   7.48266040135804E-07   1.55485120354407E-13   0.00000000000000E+00   0.00000000000000E+00
      0.00000000000000E+00   0.00000000000000E+00  -7.48266040131572E-07  -4.20425748962749E-18  -7.48266040135777E-07
     -1.57568518675081E-13
      4.60000000000000E-02
      6.90000000000001E-01   6.90000000000001E-01   0.00000000000000E+00   0.00000000000000E+00   7.49165158015727E-07
      2.04066467423452E-17   7.49165158036134E-07   1.56595437610206E-13   0.00000000000000E+00   0.00000000000000E+00
      0.00000000000000E+00   0.00000000000000E+00  -7.49165158038960E-07   2.83138398766771E-18  -7.49165158036128E-07
     -1.58678835941563E-13
      4.70000000000000E-02
      7.05000000000001E-01   7.05000000000001E-01   0.00000000000000E+00   0.00000000000000E+00   7.50060087242643E-07
      2.02353941653992E-17   7.50060087262878E-07   1.57699088948808E-13   0.00000000000000E+00   0.00000000000000E+00
      0.00000000000000E+00   0.00000000000000E+00  -7.50060087313357E-07   5.04805081174661E-17  -7.50060087262876E-07
     -1.59782487290856E-13
      4.80000000000000E-02
      7.20000000000001E-01   7.20000000000001E-01   0.00000000000000E+00   0.00000000000000E+00   7.50950482045804E-07
      2.00881537708847E-17   7.50950482065892E-07   1.58796175376308E-13   0.00000000000000E+00   0.00000000000000E+00
      0.00000000000000E+00   0.00000000000000E+00  -7.50950482083531E-07   1.76559298026271E-17  -7.50950482065875E-07
     -1.60879573729066E-13
      4.90000000000000E-02
      7.35000000000001E-01   7.35000000000001E-01   0.00000000000000E+00   0.00000000000000E+00   7.51836212716208E-07
      1.99731359732851E-17   7.51836212736181E-07   1.59886795443370E-13   0.00000000000000E+00   0.00000000000000E+00
      0.00000000000000E+00   0.00000000000000E+00  -7.51836212763587E-07   2.74143832228375E-17  -7.51836212736172E-07
     -1.61970193806844E-13
      5.00000000000000E-02
      7.50000000000001E-01   7.50000000000001E-01   0.00000000000000E+00   0.00000000000000E+00   7.52717342254212E-07
      1.93906145064878E-17   7.52717342273602E-07   1.60971045316766E-13   0.00000000000000E+00   0.00000000000000E+00
      0.00000000000000E+00   0.00000000000000E+00  -7.52717342278498E-07   4.88945446638279E-18  -7.52717342273608E-07
     -1.63054443690954E-13
      5.10000000000000E-02
      7.65000000000001E-01   7.65000000000001E-01   0.00000000000000E+00   0.00000000000000E+00   7.53594060663105E-07
      1.93433751316544E-17   7.53594060682448E-07   1.62049018828067E-13   0.00000000000000E+00   0.00000000000000E+00
      0.00000000000000E+00   0.00000000000000E+00  -7.53594060697187E-07   1.47327987544991E-17  -7.53594060682454E-07
     -1.64132417212969E-13
      5.20000000000000E-02
      7.80000000000001E-01   7.80000000000001E-01   0.00000000000000E+00   0.00000000000000E+00   7.54466590474645E-07
      1.93202688419606E-17   7.54466590493966E-07   1.63120807495729E-13   0.00000000000000E+00   0.00000000000000E+00
      0.00000000000000E+00   0.00000000000000E+00  -7.54466590446299E-07  -4.76485391776963E-17  -7.54466590493948E-07
     -1.65204205891347E-13
      5.30000000000000E-02
      7.95000000000001E-01   7.95000000000001E-01   0.00000000000000E+00   0.00000000000000E+00   7.55335123238234E-07
      1.93141567071420E-17   7.55335123257548E-07   1.64186500514555E-13   0.00000000000000E+00   0.00000000000000E+00
      0.00000000000000E+00   0.00000000000000E+00  -7.55335123250662E-07  -6.86725732958829E-18  -7.55335123257529E-07
     -1.66269898920881E-13
      5.40000000000000E-02
      8.10000000000001E-01   8.10000000000001E-01   0.00000000000000E+00   0.00000000000000E+00   7.56199776353383E-07
      1.93220753957442E-17   7.56199776372705E-07   1.65246184708387E-13   0.00000000000000E+00   0.00000000000000E+00
      0.00000000000000E+00   0.00000000000000E+00  -7.56199776367114E-07  -5.58846177865130E-18  -7.56199776372703E-07
     -1.67329583125402E-13
      5.50000000000000E-02
      8.25000000000001E-01   8.25000000000001E-01   0.00000000000000E+00   0.00000000000000E+00   7.57060600315664E-07
      1.93022918040973E-17   7.57060600334966E-07   1.66299944439608E-13   0.00000000000000E+00   0.00000000000000E+00
      0.00000000000000E+00   0.00000000000000E+00  -7.57060600347206E-07   1.22271004360711E-17  -7.57060600334978E-07
     -1.68383342867299E-13
      5.60000000000000E-02
      8.40000000000001E-01   8.40000000000001E-01   0.00000000000000E+00   0.00000000000000E+00   7.57917613334879E-07
      1.93591200935558E-17   7.57917613354238E-07   1.67347861469935E-13   0.00000000000000E+00   0.00000000000000E+00
      0.00000000000000E+00   0.00000000000000E+00  -7.57917613330288E-07  -2.39443428246957E-17  -7.57917613354233E-07
     -1.69431259908285E-13
      5.70000000000000E-02
      8.55000000000001E-01   8.55000000000001E-01   0.00000000000000E+00   0.00000000000000E+00   7.58770870825968E-07
      1.94704310856770E-17   7.58770870845438E-07   1.68390014764707E-13   0.00000000000000E+00   0.00000000000000E+00
      0.00000000000000E+00   0.00000000000000E+00  -7.58770870825585E-07  -1.98452805869843E-17  -7.58770870845431E-07
     -1.70473413213690E-13
      5.80000000000000E-02
      8.70000000000001E-01   8.70000000000001E-01   0.00000000000000E+00   0.00000000000000E+00   7.59620520324145E-07
      1.96611615547086E-17   7.59620520343806E-07   1.69426480233436E-13   0.00000000000000E+00   0.00000000000000E+00
      0.00000000000000E+00   0.00000000000000E+00  -7.59620520385048E-07   4.12621553752709E-17  -7.59620520343786E-07
     -1.71509878693026E-13
      5.90000000000000E-02
      8.85000000000001E-01   8.85000000000001E-01   0.00000000000000E+00   0.00000000000000E+00   7.60466831623898E-07
      1.99582645013855E-17   7.60466831643856E-07   1.70457330396296E-13   0.00000000000000E+00   0.00000000000000E+00
      0.00000000000000E+00   0.00000000000000E+00  -7.60466831681963E-07   3.80853379093549E-17  -7.60466831643877E-07
     -1.72540728866464E-13
      6.00000000000000E-02
      9.00000000000001E-01   9.00000000000001E-01   0.00000000000000E+00   0.00000000000000E+00   7.61310188568555E-07
      2.03897158065578E-17   7.61310188588945E-07   1.71482633964245E-13   0.00000000000000E+00   0.00000000000000E+00
      0.00000000000000E+00   0.00000000000000E+00  -7.61310188587820E-07  -1.11626956390402E-18  -7.61310188588936E-07
     -1.73566032444953E-13
      6.10000000000000E-02
      9.15000000000001E-01   9.15000000000001E-01   0.00000000000000E+00   0.00000000000000E+00   7.62151044300322E-07
      2.09846947414322E-17   7.62151044321307E-07   1.72502455317403E-13   0.00000000000000E+00   0.00000000000000E+00
      0.00000000000000E+00   0.00000000000000E+00  -7.62151044332972E-07   1.16872848729141E-17  -7.62151044321284E-07
     -1.74585853808607E-13
      6.20000000000000E-02
      9.30000000000001E-01   9.30000000000001E-01   0.00000000000000E+00   0.00000000000000E+00   7.62989853521146E-07
      2.17766614174112E-17   7.62989853542923E-07   1.73516853862873E-13   0.00000000000000E+00   0.00000000000000E+00
      0.00000000000000E+00   0.00000000000000E+00  -7.62989853516040E-07  -2.68814699959395E-17  -7.62989853542921E-07
     -1.75600252364526E-13
      6.30000000000000E-02
      9.45000000000001E-01   9.45000000000001E-01   0.00000000000000E+00   0.00000000000000E+00   7.63827001779043E-07
      2.28074939741608E-17   7.63827001801850E-07   1.74525883249115E-13   0.00000000000000E+00   0.00000000000000E+00
      0.00000000000000E+00   0.00000000000000E+00  -7.63827001834149E-07   3.23180204217572E-17  -7.63827001801831E-07
     -1.76609281761172E-13
      6.40000000000000E-02
      9.60000000000001E-01   9.60000000000001E-01   0.00000000000000E+00   0.00000000000000E+00   7.64662751752440E-07
      2.41331203438691E-17   7.64662751776573E-07   1.75529590409468E-13   0.00000000000000E+00   0.00000000000000E+00
      0.00000000000000E+00   0.00000000000000E+00  -7.64662751759418E-07  -1.71809145748602E-17  -7.64662751776599E-07
     -1.77612988931867E-13
      6.50000000000000E-02
      9.75000000000001E-01   9.75000000000001E-01   0.00000000000000E+00   0.00000000000000E+00   7.65497220566085E-07
      2.58300022749654E-17   7.65497220591915E-07   1.76528014401960E-13   0.00000000000000E+00   0.00000000000000E+00
      0.00000000000000E+00   0.00000000000000E+00  -7.65497220634555E-07   4.26352589447954E-17  -7.65497220591920E-07
     -1.78611412934642E-13
      6.60000000000000E-02
      9.90000000000001E-01   9.90000000000001E-01   0.00000000000000E+00   0.00000000000000E+00   7.66330392302850E-07
      2.80021946731645E-17   7.66330392330852E-07   1.77521185006312E-13   0.00000000000000E+00   0.00000000000000E+00
      0.00000000000000E+00   0.00000000000000E+00  -7.66330392337379E-07   6.53127137183716E-18  -7.66330392330848E-07
     -1.79604583549220E-13
      6.70000000000000E-02
      1.00500000000000E+00   1.00500000000000E+00   0.00000000000000E+00   0.00000000000000E+00   7.67162159000090E-07
      3.07888220264769E-17   7.67162159030878E-07   1.78509121031539E-13   0.00000000000000E+00   0.00000000000000E+00
      0.00000000000000E+00   0.00000000000000E+00  -7.67162159029050E-07  -1.80022235307424E-18  -7.67162159030851E-07
     -1.80592519584599E-13
      6.80000000000000E-02
      1.02000000000000E+00   1.02000000000000E+00   0.00000000000000E+00   0.00000000000000E+00   7.67992374892819E-07
      3.43730775225354E-17   7.67992374927192E-07   1.79491828279057E-13   0.00000000000000E+00   0.00000000000000E+00
      0.00000000000000E+00   0.00000000000000E+00  -7.67992374959821E-07   3.26320281517013E-17  -7.67992374927189E-07
     -1.81575226842193E-13
      6.90000000000000E-02