DF-ISE text

Info {
  version   = 1.0
  type      = xyplot
  datasets  = [
    "time"
    "ntype OuterVoltage" "ntype InnerVoltage" "ntype QuasiFermiPotential" "ntype DisplacementCurrent" "ntype eCurrent"
    "ntype hCurrent" "ntype TotalCurrent" "ntype Charge" "ptype OuterVoltage" "ptype InnerVoltage"
    "ptype QuasiFermiPotential" "ptype DisplacementCurrent" "ptype eCurrent" "ptype hCurrent" "ptype TotalCurrent"
    "ptype Charge" ]
  functions = [
    Time
    OuterVoltage InnerVoltage QuasiFermiPotential DisplacementCurrent eCurrent
    hCurrent TotalCurrent Charge OuterVoltage InnerVoltage
    QuasiFermiPotential DisplacementCurrent eCurrent hCurrent TotalCurrent
    Charge ]
}

Data {
      0.00000000000000E+00
      0.00000000000000E+00   0.00000000000000E+00   0.00000000000000E+00   0.00000000000000E+00   3.16049397556674E-07
     -3.16049397556674E-07   0.00000000000000E+00  -3.58208305807420E-30   0.00000000000000E+00   0.00000000000000E+00
      0.00000000000000E+00   0.00000000000000E+00   6.72545444058632E-07  -6.72545444058646E-07  -1.41016706527093E-20
      1.07792122010972E-27
      0.00000000000000E+00
      0.00000000000000E+00   0.00000000000000E+00   0.00000000000000E+00   0.00000000000000E+00   7.73767285470431E-07
     -3.16044154520198E-07   4.57723130950233E-07  -8.07896571519226E-30   0.00000000000000E+00   0.00000000000000E+00
      0.00000000000000E+00   0.00000000000000E+00   1.24033303577864E-07  -5.81790567042407E-07  -4.57757263464543E-07
     -1.76911657996911E-27
      0.00000000000000E+00
      0.00000000000000E+00   0.00000000000000E+00   0.00000000000000E+00   0.00000000000000E+00   6.95970518142819E-07
     -8.34664368592550E-19   6.95970518141985E-07  -4.36986915906899E-31   0.00000000000000E+00   0.00000000000000E+00
      0.00000000000000E+00   0.00000000000000E+00  -6.95970518200802E-07   5.88134184323469E-17  -6.95970518141988E-07
      1.17442728557977E-27
      1.00000000000000E-03
      1.50000000000000E-02   1.50000000000000E-02   0.00000000000000E+00   0.00000000000000E+00   6.97382936569544E-07
     -2.86534130986081E-15   6.97382933704203E-07  -7.21406427609625E-30   0.00000000000000E+00   0.00000000000000E+00
      0.00000000000000E+00   0.00000000000000E+00  -6.97382933688381E-07  -1.58212673741938E-17  -6.97382933704202E-07
      2.99727662348544E-28
      2.00000000000000E-03
      3.00000000000000E-02   3.00000000000000E-02   0.00000000000000E+00   0.00000000000000E+00   6.98719289179616E-07
     -1.16827310157895E-17   6.98719289167934E-07   1.23233334416651E-30   0.00000000000000E+00   0.00000000000000E+00
      0.00000000000000E+00   0.00000000000000E+00  -6.98719289163036E-07  -4.89653835162795E-18  -6.98719289167933E-07
     -6.47018855585556E-28
      3.00000000000000E-03
      4.50000000000000E-02   4.50000000000000E-02   0.00000000000000E+00   0.00000000000000E+00   6.99998810469472E-07
      1.02514992694549E-18   6.99998810470498E-07  -1.82052680536992E-30   0.00000000000000E+00   0.00000000000000E+00
      0.00000000000000E+00   0.00000000000000E+00  -6.99998810524718E-07   5.42230245720547E-17  -6.99998810470495E-07
      3.46734753150321E-28
      4.00000000000000E-03
      6.00000000000000E-02   6.00000000000000E-02   0.00000000000000E+00   0.00000000000000E+00   7.01234499721264E-07
      7.78553104424911E-18   7.01234499729050E-07  -2.78522456436162E-30   0.00000000000000E+00   0.00000000000000E+00
      0.00000000000000E+00   0.00000000000000E+00  -7.01234499697761E-07  -3.12915330571037E-17  -7.01234499729052E-07
     -3.35291441802282E-28
      5.00000000000000E-03
      7.50000000000000E-02   7.50000000000000E-02   0.00000000000000E+00   0.00000000000000E+00   7.02434918217104E-07
      1.22222755863993E-17   7.02434918229326E-07  -2.97120861507632E-30   0.00000000000000E+00   0.00000000000000E+00
      0.00000000000000E+00   0.00000000000000E+00  -7.02434918171693E-07  -5.76376870512897E-17  -7.02434918229331E-07
      3.29039958393543E-27
      6.00000000000000E-03
      9.00000000000000E-02   9.00000000000000E-02   0.00000000000000E+00   0.00000000000000E+00   7.03605873229124E-07
      1.59740993333234E-17   7.03605873245098E-07  -2.92735871694033E-30   0.00000000000000E+00   0.00000000000000E+00
      0.00000000000000E+00   0.00000000000000E+00  -7.03605873229167E-07  -1.59372245473580E-17  -7.03605873245104E-07
      2.23565530308876E-27
      7.00000000000000E-03
      1.05000000000000E-01   1.05000000000000E-01   0.00000000000000E+00   0.00000000000000E+00   7.04751722067068E-07
      1.73216982007455E-17   7.04751722084389E-07  -1.36237097312151E-30   0.00000000000000E+00   0.00000000000000E+00
      0.00000000000000E+00   0.00000000000000E+00  -7.04751722084247E-07  -1.43338632575321E-19  -7.04751722084391E-07
      1.03253506347353E-27
      8.00000000000000E-03
      1.20000000000000E-01   1.20000000000000E-01   0.00000000000000E+00   0.00000000000000E+00   7.05876080591860E-07
      1.85070789815349E-17   7.05876080610367E-07  -4.08711291936453E-30   0.00000000000000E+00   0.00000000000000E+00
      0.00000000000000E+00   0.00000000000000E+00  -7.05876080624205E-07   1.38318017667481E-17  -7.05876080610374E-07
      2.96872882773346E-28
      9.00000000000000E-03
      1.35000000000000E-01   1.35000000000000E-01   0.00000000000000E+00   0.00000000000000E+00   7.06981967003034E-07
      1.98027347107186E-17   7.06981967022837E-07  -6.94038042910957E-31   0.00000000000000E+00   0.00000000000000E+00
      0.00000000000000E+00   0.00000000000000E+00  -7.06981967023883E-07   1.04061791296092E-18  -7.06981967022843E-07
      3.54154760741111E-27
      1.00000000000000E-02
      1.50000000000000E-01   1.50000000000000E-01   0.00000000000000E+00   0.00000000000000E+00   7.08071643106826E-07
      1.88555400958091E-17   7.08071643125681E-07  -1.45838712938479E-29   0.00000000000000E+00   0.00000000000000E+00
      0.00000000000000E+00   0.00000000000000E+00  -7.08071643132310E-07   6.62935019141044E-18  -7.08071643125681E-07
      3.67581901963441E-27
      1.10000000000000E-02
      1.65000000000000E-01   1.65000000000000E-01   0.00000000000000E+00   0.00000000000000E+00   7.09146485988854E-07
      1.93412525836903E-17   7.09146486008195E-07  -4.91874891849530E-30   0.00000000000000E+00   0.00000000000000E+00
      0.00000000000000E+00   0.00000000000000E+00  -7.09146485955076E-07  -5.31266607222720E-17  -7.09146486008202E-07
     -6.01173031051656E-28
      1.20000000000000E-02
      1.80000000000000E-01   1.80000000000000E-01   0.00000000000000E+00   0.00000000000000E+00   7.10207106022613E-07
      1.87142440506965E-17   7.10207106041328E-07   2.89862947333400E-30   0.00000000000000E+00   0.00000000000000E+00
      0.00000000000000E+00   0.00000000000000E+00  -7.10207105919271E-07  -1.22055778490517E-16  -7.10207106041327E-07
     -4.72006351797570E-29
      1.30000000000000E-02
      1.95000000000000E-01   1.95000000000000E-01   0.00000000000000E+00   0.00000000000000E+00   7.11253713169039E-07
      1.81183584805217E-17   7.11253713187157E-07  -3.36283356739427E-30   0.00000000000000E+00   0.00000000000000E+00
      0.00000000000000E+00   0.00000000000000E+00  -7.11253713160729E-07  -2.64252778973901E-17  -7.11253713187154E-07
      7.82548306265720E-28
      1.40000000000000E-02
      2.10000000000000E-01   2.10000000000000E-01   0.00000000000000E+00   0.00000000000000E+00   7.12286551092176E-07
      1.81120561483941E-17   7.12286551110288E-07  -5.59010597961179E-30   0.00000000000000E+00   0.00000000000000E+00
      0.00000000000000E+00   0.00000000000000E+00  -7.12286551096597E-07  -1.36866771358748E-17  -7.12286551110284E-07
      1.99520060649644E-28
      1.50000000000000E-02
      2.25000000000000E-01   2.25000000000000E-01   0.00000000000000E+00   0.00000000000000E+00   7.13306174743606E-07
      1.79160605723114E-17   7.13306174761522E-07   3.82098939964268E-30   0.00000000000000E+00   0.00000000000000E+00
      0.00000000000000E+00   0.00000000000000E+00  -7.13306174731061E-07  -3.04633452528498E-17  -7.13306174761524E-07
     -1.98109605995118E-27
      1.60000000000000E-02
      2.40000000000000E-01   2.40000000000000E-01   0.00000000000000E+00   0.00000000000000E+00   7.14313449930021E-07
      1.79421646213663E-17   7.14313449947963E-07   7.38946386864019E-30   0.00000000000000E+00   0.00000000000000E+00
      0.00000000000000E+00   0.00000000000000E+00  -7.14313449955047E-07   7.07733165103079E-18  -7.14313449947970E-07
      6.13753415620325E-28
      1.70000000000000E-02
      2.55000000000000E-01   2.55000000000000E-01   0.00000000000000E+00   0.00000000000000E+00   7.15309326630850E-07
      1.79788617998357E-17   7.15309326648828E-07  -2.38906341568478E-30   0.00000000000000E+00   0.00000000000000E+00
      0.00000000000000E+00   0.00000000000000E+00  -7.15309326674241E-07   2.54146599224275E-17  -7.15309326648827E-07
      1.59778141936273E-27
      1.80000000000000E-02
      2.70000000000000E-01   2.70000000000000E-01   0.00000000000000E+00   0.00000000000000E+00   7.16294542123670E-07
      1.90478789556427E-17   7.16294542142718E-07   4.12793868659458E-30   0.00000000000000E+00   0.00000000000000E+00
      0.00000000000000E+00   0.00000000000000E+00  -7.16294542146050E-07   3.32901901056144E-18  -7.16294542142721E-07
      3.59080465160690E-27
      1.90000000000000E-02
      2.85000000000000E-01   2.85000000000000E-01   0.00000000000000E+00   0.00000000000000E+00   7.17269451737490E-07
      1.95179337664922E-17   7.17269451757008E-07  -1.21721268963686E-30   0.00000000000000E+00   0.00000000000000E+00
      0.00000000000000E+00   0.00000000000000E+00  -7.17269451717011E-07  -3.99955655535996E-17  -7.17269451757007E-07
      3.62965868548629E-27
      2.00000000000000E-02
      3.00000000000000E-01   3.00000000000000E-01   0.00000000000000E+00   0.00000000000000E+00   7.18234064973949E-07
      2.03846896696838E-17   7.18234064994334E-07   1.25577035868747E-29   0.00000000000000E+00   0.00000000000000E+00
      0.00000000000000E+00   0.00000000000000E+00  -7.18234064945195E-07  -4.91464980009003E-17  -7.18234064994342E-07
     -6.13051817250150E-29
      2.10000000000000E-02
      3.15000000000000E-01   3.15000000000000E-01   0.00000000000000E+00   0.00000000000000E+00   7.19188269584581E-07
      2.10371701283602E-17   7.19188269605618E-07  -8.90001725615228E-30   0.00000000000000E+00   0.00000000000000E+00
      0.00000000000000E+00   0.00000000000000E+00  -7.19188269529226E-07  -7.63988215061048E-17  -7.19188269605625E-07
     -3.64056974979489E-28
      2.20000000000000E-02
      3.30000000000000E-01   3.30000000000000E-01   0.00000000000000E+00   0.00000000000000E+00   7.20132114503419E-07
      2.15362510399836E-17   7.20132114524955E-07  -6.37033175334175E-30   0.00000000000000E+00   0.00000000000000E+00
      0.00000000000000E+00   0.00000000000000E+00  -7.20132114490240E-07  -3.47203445959927E-17  -7.20132114524960E-07
      7.15146476634350E-28
      2.30000000000000E-02
      3.45000000000000E-01   3.45000000000000E-01   0.00000000000000E+00   0.00000000000000E+00   7.21066000239701E-07
      2.19474188738025E-17   7.21066000261648E-07  -4.28519349370295E-30   0.00000000000000E+00   0.00000000000000E+00
      0.00000000000000E+00   0.00000000000000E+00  -7.21066000322745E-07   6.10998441781617E-17  -7.21066000261645E-07
     -1.66213492504092E-27
      2.40000000000000E-02
      3.60000000000000E-01   3.60000000000000E-01   0.00000000000000E+00   0.00000000000000E+00   7.21990687041424E-07
      2.27022374332379E-17   7.21990687064126E-07  -3.58510718898013E-30   0.00000000000000E+00   0.00000000000000E+00
      0.00000000000000E+00   0.00000000000000E+00  -7.21990687114199E-07   5.00774215144846E-17  -7.21990687064122E-07
     -2.45411851973315E-27
      2.50000000000000E-02
      3.75000000000000E-01   3.75000000000000E-01   0.00000000000000E+00   0.00000000000000E+00   7.22907131825092E-07
      2.29497189314547E-17   7.22907131848042E-07  -6.84360824011981E-30   0.00000000000000E+00   0.00000000000000E+00
      0.00000000000000E+00   0.00000000000000E+00  -7.22907131809553E-07  -3.84776280689003E-17  -7.22907131848031E-07
     -1.82834115963084E-27
      2.60000000000000E-02
      3.90000000000000E-01   3.90000000000000E-01   0.00000000000000E+00   0.00000000000000E+00   7.23816247220908E-07
      2.37260040333843E-17   7.23816247244634E-07   7.57544791935490E-31   0.00000000000000E+00   0.00000000000000E+00
      0.00000000000000E+00   0.00000000000000E+00  -7.23816247266891E-07   2.22578085960777E-17  -7.23816247244634E-07
      1.12275093665923E-27
      2.70000000000000E-02
      4.05000000000000E-01   4.05000000000000E-01   0.00000000000000E+00   0.00000000000000E+00   7.24718702936293E-07
      2.38980695814722E-17   7.24718702960191E-07  -7.84761970088860E-31   0.00000000000000E+00   0.00000000000000E+00
      0.00000000000000E+00   0.00000000000000E+00  -7.24718702933861E-07  -2.63311396464728E-17  -7.24718702960193E-07
     -1.69351330732085E-28
      2.80000000000000E-02
      4.20000000000000E-01   4.20000000000000E-01   0.00000000000000E+00   0.00000000000000E+00   7.25614859030878E-07
      2.37842989179225E-17   7.25614859054662E-07  -1.05708495816787E-29   0.00000000000000E+00   0.00000000000000E+00
      0.00000000000000E+00   0.00000000000000E+00  -7.25614859062788E-07   8.12810336631227E-18  -7.25614859054660E-07
      3.31556035307277E-27
      2.90000000000000E-02
      4.35000000000000E-01   4.35000000000000E-01   0.00000000000000E+00   0.00000000000000E+00   7.26504854594308E-07
      2.36025808648403E-17   7.26504854617911E-07   1.97929367793125E-30   0.00000000000000E+00   0.00000000000000E+00
      0.00000000000000E+00   0.00000000000000E+00  -7.26504854612409E-07  -5.50196524490950E-18  -7.26504854617911E-07
      9.47738432871245E-28
      3.00000000000000E-02
      4.50000000000000E-01   4.50000000000000E-01   0.00000000000000E+00   0.00000000000000E+00   7.27388791710061E-07
      2.37044998902153E-17   7.27388791733766E-07   5.33759104896662E-31   0.00000000000000E+00   0.00000000000000E+00
      0.00000000000000E+00   0.00000000000000E+00  -7.27388791666787E-07  -6.69842411606023E-17  -7.27388791733771E-07
     -9.65979990495816E-28
      3.10000000000000E-02
      4.65000000000000E-01   4.65000000000000E-01   0.00000000000000E+00   0.00000000000000E+00   7.28266933909553E-07
      2.35928067145751E-17   7.28266933933145E-07  -7.51194117033036E-30   0.00000000000000E+00   0.00000000000000E+00
      0.00000000000000E+00   0.00000000000000E+00  -7.28266933873001E-07  -6.01469564700647E-17  -7.28266933933148E-07
     -1.71780312675729E-27
      3.20000000000000E-02
      4.80000000000000E-01   4.80000000000000E-01   0.00000000000000E+00   0.00000000000000E+00   7.29139814599843E-07
      2.33253914582823E-17   7.29139814623169E-07   4.21866261377249E-31   0.00000000000000E+00   0.00000000000000E+00
      0.00000000000000E+00   0.00000000000000E+00  -7.29139814521060E-07  -1.02107974166070E-16  -7.29139814623168E-07
      1.60472482392275E-27
      3.30000000000000E-02
      4.95000000000000E-01   4.95000000000000E-01   0.00000000000000E+00   0.00000000000000E+00   7.30008213578808E-07
      2.28955046314542E-17   7.30008213601703E-07   1.58010839834848E-30   0.00000000000000E+00   0.00000000000000E+00
      0.00000000000000E+00   0.00000000000000E+00  -7.30008213573405E-07  -2.82940599876100E-17  -7.30008213601699E-07
      6.90759885008929E-28
      3.40000000000000E-02
      5.10000000000000E-01   5.10000000000000E-01   0.00000000000000E+00   0.00000000000000E+00   7.30873022968871E-07
      2.28328199862734E-17   7.30873022991704E-07  -2.26204991763571E-30   0.00000000000000E+00   0.00000000000000E+00
      0.00000000000000E+00   0.00000000000000E+00  -7.30873022916469E-07  -7.52359510409391E-17  -7.30873022991705E-07
     -1.03754302425375E-27
      3.50000000000000E-02
      5.25000000000000E-01   5.25000000000000E-01   0.00000000000000E+00   0.00000000000000E+00   7.31735066438558E-07
      2.27408841763157E-17   7.31735066461299E-07   8.76544343083839E-30   0.00000000000000E+00   0.00000000000000E+00
      0.00000000000000E+00   0.00000000000000E+00  -7.31735066348620E-07  -1.12669557964532E-16  -7.31735066461289E-07
      8.84110718610476E-28
      3.60000000000000E-02
      5.40000000000000E-01   5.40000000000000E-01   0.00000000000000E+00   0.00000000000000E+00   7.32594950400694E-07
      2.22753083011382E-17   7.32594950422969E-07  -9.18277349585674E-30   0.00000000000000E+00   0.00000000000000E+00
      0.00000000000000E+00   0.00000000000000E+00  -7.32594950456239E-07   3.32642208654419E-17  -7.32594950422975E-07
     -1.43513156271819E-28
      3.70000000000000E-02
      5.55000000000000E-01   5.55000000000000E-01   0.00000000000000E+00   0.00000000000000E+00   7.33453007009835E-07
      2.23615897661800E-17   7.33453007032197E-07  -7.48774812308292E-30   0.00000000000000E+00   0.00000000000000E+00
      0.00000000000000E+00   0.00000000000000E+00  -7.33453007023421E-07  -8.77695728378731E-18  -7.33453007032198E-07
      4.33297476201664E-28
      3.80000000000000E-02
      5.70000000000000E-01   5.70000000000000E-01   0.00000000000000E+00   0.00000000000000E+00   7.34309347223168E-07
      2.18643501400227E-17   7.34309347245032E-07   3.56847446899752E-31   0.00000000000000E+00   0.00000000000000E+00
      0.00000000000000E+00   0.00000000000000E+00  -7.34309347246616E-07   1.58352568503735E-18  -7.34309347245033E-07
     -8.27644146334949E-28
      3.90000000000000E-02
      5.85000000000000E-01   5.85000000000000E-01   0.00000000000000E+00   0.00000000000000E+00   7.35163995667393E-07
      2.18258800593610E-17   7.35163995689218E-07   5.15463112915785E-30   0.00000000000000E+00   0.00000000000000E+00
      0.00000000000000E+00   0.00000000000000E+00  -7.35163995719217E-07   2.99982993649209E-17  -7.35163995689219E-07
     -8.26869968823031E-28
      4.00000000000000E-02
      6.00000000000000E-01   6.00000000000000E-01   0.00000000000000E+00   0.00000000000000E+00   7.36017046190031E-07
      2.17316284663738E-17   7.36017046211763E-07   1.14463354789454E-29   0.00000000000000E+00   0.00000000000000E+00
      0.00000000000000E+00   0.00000000000000E+00  -7.36017046260183E-07   4.84264584454763E-17  -7.36017046211757E-07
      5.15132877820858E-27
      4.10000000000000E-02
      6.15000000000000E-01   6.15000000000000E-01   0.00000000000000E+00   0.00000000000000E+00   7.36868772907795E-07
      2.15668330121250E-17   7.36868772929362E-07  -1.53172230385359E-29   0.00000000000000E+00   0.00000000000000E+00
      0.00000000000000E+00   0.00000000000000E+00  -7.36868772961461E-07   3.21055119916537E-17  -7.36868772929356E-07
     -1.49266262907260E-27
      4.20000000000000E-02
      6.30000000000000E-01   6.30000000000000E-01   0.00000000000000E+00   0.00000000000000E+00   7.37719650197732E-07
      2.15620762229929E-17   7.37719650219294E-07  -1.13692201408442E-29   0.00000000000000E+00   0.00000000000000E+00
      0.00000000000000E+00   0.00000000000000E+00  -7.37719650180515E-07  -3.87782206214667E-17  -7.37719650219293E-07
      1.24836123796794E-27
      4.30000000000000E-02
      6.45000000000000E-01   6.45000000000000E-01   0.00000000000000E+00   0.00000000000000E+00   7.38570283853783E-07
      2.16032302627705E-17   7.38570283875386E-07   6.11176856088473E-30   0.00000000000000E+00   0.00000000000000E+00
      0.00000000000000E+00   0.00000000000000E+00  -7.38570283906583E-07   3.11977126230207E-17  -7.38570283875385E-07
      1.79865629065823E-27
      4.40000000000000E-02
      6.60000000000000E-01   6.60000000000000E-01   0.00000000000000E+00   0.00000000000000E+00   7.39421286149192E-07
      2.17577160440380E-17   7.39421286170950E-07   5.53415955785208E-30   0.00000000000000E+00   0.00000000000000E+00
      0.00000000000000E+00   0.00000000000000E+00  -7.39421286190962E-07   2.00095739298675E-17  -7.39421286170953E-07
     -2.87166632217673E-27
      4.50000000000000E-02
      6.75000000000000E-01   6.75000000000000E-01   0.00000000000000E+00   0.00000000000000E+00   7.40273142165335E-07
      2.19727812377344E-17   7.40273142187308E-07   4.38498981359864E-32   0.00000000000000E+00   0.00000000000000E+00
      0.00000000000000E+00   0.00000000000000E+00  -7.40273142145541E-07  -4.17664431149023E-17  -7.40273142187307E-07
     -2.83111877499002E-27
      4.60000000000000E-02
      6.90000000000001E-01   6.90000000000001E-01   0.00000000000000E+00   0.00000000000000E+00   7.41126121788111E-07
      2.21455990693402E-17   7.41126121810257E-07  -6.61679842217505E-30   0.00000000000000E+00   0.00000000000000E+00
      0.00000000000000E+00   0.00000000000000E+00  -7.41126121777253E-07  -3.30099919025134E-17  -7.41126121810263E-07
     -7.78532260422644E-29
      4.70000000000000E-02
      7.05000000000001E-01   7.05000000000001E-01   0.00000000000000E+00   0.00000000000000E+00   7.41980268511779E-07
      2.24364234121429E-17   7.41980268534215E-07   1.07371767815048E-29   0.00000000000000E+00   0.00000000000000E+00
      0.00000000000000E+00   0.00000000000000E+00  -7.41980268590128E-07   5.59171283735840E-17  -7.41980268534211E-07
      1.34285928051645E-27
      4.80000000000000E-02
      7.20000000000001E-01   7.20000000000001E-01   0.00000000000000E+00   0.00000000000000E+00   7.42835466439357E-07
      2.25840053179924E-17   7.42835466461941E-07  -8.61877308190078E-31   0.00000000000000E+00   0.00000000000000E+00
      0.00000000000000E+00   0.00000000000000E+00  -7.42835466502568E-07   4.06254089884540E-17  -7.42835466461943E-07
     -3.16445057996525E-29
      4.90000000000000E-02
      7.35000000000001E-01   7.35000000000001E-01   0.00000000000000E+00   0.00000000000000E+00   7.43691557731775E-07
      2.27109648401229E-17   7.43691557754486E-07   2.82000206977982E-30   0.00000000000000E+00   0.00000000000000E+00
      0.00000000000000E+00   0.00000000000000E+00  -7.43691557766655E-07   1.21687191969485E-17  -7.43691557754486E-07
      8.07612303214068E-28
      5.00000000000000E-02
      7.50000000000001E-01   7.50000000000001E-01   0.00000000000000E+00   0.00000000000000E+00   7.44548466432930E-07
      2.28226570031776E-17   7.44548466455752E-07  -1.57436254962721E-29   0.00000000000000E+00   0.00000000000000E+00
      0.00000000000000E+00   0.00000000000000E+00  -7.44548466397175E-07  -5.85753693030376E-17  -7.44548466455750E-07
     -2.03899002201431E-28
      5.10000000000000E-02
      7.65000000000001E-01   7.65000000000001E-01   0.00000000000000E+00   0.00000000000000E+00   7.45406282623855E-07
      2.30163309232350E-17   7.45406282646871E-07  -1.22522663653758E-29   0.00000000000000E+00   0.00000000000000E+00
      0.00000000000000E+00   0.00000000000000E+00  -7.45406282606383E-07  -4.04903607983694E-17  -7.45406282646873E-07
     -7.56516587427473E-28
      5.20000000000000E-02
      7.80000000000001E-01   7.80000000000001E-01   0.00000000000000E+00   0.00000000000000E+00   7.46265280026563E-07
      2.33258826297536E-17   7.46265280049889E-07   4.71008388598613E-30   0.00000000000000E+00   0.00000000000000E+00
      0.00000000000000E+00   0.00000000000000E+00  -7.46265280112510E-07   6.26202047799531E-17  -7.46265280049890E-07
      8.39160036824731E-28
      5.30000000000000E-02
      7.95000000000001E-01   7.95000000000001E-01   0.00000000000000E+00   0.00000000000000E+00   7.47125866974954E-07
      2.32823033127015E-17   7.47125866998237E-07  -1.03727690073402E-29   0.00000000000000E+00   0.00000000000000E+00
      0.00000000000000E+00   0.00000000000000E+00  -7.47125866960940E-07  -3.72867618424559E-17  -7.47125866998227E-07
     -3.80101803913992E-27
      5.40000000000000E-02
      8.10000000000001E-01   8.10000000000001E-01   0.00000000000000E+00   0.00000000000000E+00   7.47988489338988E-07
      2.35927729617252E-17   7.47988489362580E-07  -3.88147201776128E-30   0.00000000000000E+00   0.00000000000000E+00
      0.00000000000000E+00   0.00000000000000E+00  -7.47988489417747E-07   5.51626843357707E-17  -7.47988489362584E-07
     -1.96994306517011E-27
      5.50000000000000E-02
      8.25000000000001E-01   8.25000000000001E-01   0.00000000000000E+00   0.00000000000000E+00   7.48853528738372E-07
      2.37284393690081E-17   7.48853528762100E-07  -1.57617702817077E-29   0.00000000000000E+00   0.00000000000000E+00
      0.00000000000000E+00   0.00000000000000E+00  -7.48853528761539E-07  -5.67824125850155E-19  -7.48853528762106E-07
     -2.66205776082490E-27
      5.60000000000000E-02
      8.40000000000001E-01   8.40000000000001E-01   0.00000000000000E+00   0.00000000000000E+00   7.49721228510787E-07
      2.38293932653939E-17   7.49721228534616E-07   4.02058203943407E-30   0.00000000000000E+00   0.00000000000000E+00
      0.00000000000000E+00   0.00000000000000E+00  -7.49721228524664E-07  -9.95240298072324E-18  -7.49721228534617E-07
     -2.29156543527759E-28
      5.70000000000000E-02
      8.55000000000001E-01   8.55000000000001E-01   0.00000000000000E+00   0.00000000000000E+00   7.50591671257643E-07
      2.38208384705830E-17   7.50591671281464E-07  -1.08838471304424E-29   0.00000000000000E+00   0.00000000000000E+00
      0.00000000000000E+00   0.00000000000000E+00  -7.50591671351384E-07   6.99138490625058E-17  -7.50591671281470E-07
      4.48684254251037E-28
      5.80000000000000E-02
      8.70000000000001E-01   8.70000000000001E-01   0.00000000000000E+00   0.00000000000000E+00   7.51464816225887E-07
      2.38167479627073E-17   7.51464816249704E-07  -4.38498981359864E-32   0.00000000000000E+00   0.00000000000000E+00
      0.00000000000000E+00   0.00000000000000E+00  -7.51464816310299E-07   6.05855275001300E-17  -7.51464816249714E-07
      2.61057495628235E-27
      5.90000000000000E-02
      8.85000000000001E-01   8.85000000000001E-01   0.00000000000000E+00   0.00000000000000E+00   7.52340580234912E-07
      2.37376254096172E-17   7.52340580258649E-07  -3.01596575248409E-29   0.00000000000000E+00   0.00000000000000E+00
      0.00000000000000E+00   0.00000000000000E+00  -7.52340580310658E-07   5.20019412383252E-17  -7.52340580258656E-07
     -2.78007144529792E-27
      6.00000000000000E-02
      9.00000000000001E-01   9.00000000000001E-01   0.00000000000000E+00   0.00000000000000E+00   7.53218933538159E-07
      2.37158369324409E-17   7.53218933561875E-07  -9.79062380794869E-30   0.00000000000000E+00   0.00000000000000E+00
      0.00000000000000E+00   0.00000000000000E+00  -7.53218933571468E-07   9.59287612963070E-18  -7.53218933561875E-07
      2.00342624256057E-27
      6.10000000000000E-02
      9.15000000000001E-01   9.15000000000001E-01   0.00000000000000E+00   0.00000000000000E+00   7.54099977867700E-07
      2.36002739925631E-17   7.54099977891301E-07   1.93695584524823E-29   0.00000000000000E+00   0.00000000000000E+00
      0.00000000000000E+00   0.00000000000000E+00  -7.54099977909530E-07   1.82280825824063E-17  -7.54099977891302E-07
     -7.96914137721250E-27
      6.20000000000000E-02
      9.30000000000001E-01   9.30000000000001E-01   0.00000000000000E+00   0.00000000000000E+00   7.54983978630812E-07
      2.36039711447264E-17   7.54983978654416E-07   1.27013498049064E-29   0.00000000000000E+00   0.00000000000000E+00
      0.00000000000000E+00   0.00000000000000E+00  -7.54983978700102E-07   4.56869961432219E-17  -7.54983978654415E-07
      5.02421850797052E-27
      6.30000000000000E-02
      9.45000000000001E-01   9.45000000000001E-01   0.00000000000000E+00   0.00000000000000E+00   7.55871344177896E-07
      2.35739517650866E-17   7.55871344201470E-07   2.11764766687755E-29   0.00000000000000E+00   0.00000000000000E+00
      0.00000000000000E+00   0.00000000000000E+00  -7.55871344260196E-07   5.87341630280397E-17  -7.55871344201462E-07
     -2.89145623482513E-27
      6.40000000000000E-02
      9.60000000000001E-01   9.60000000000001E-01   0.00000000000000E+00   0.00000000000000E+00   7.56762561554306E-07
      2.35127471823725E-17   7.56762561577818E-07  -5.35119963804331E-30   0.00000000000000E+00   0.00000000000000E+00
      0.00000000000000E+00   0.00000000000000E+00  -7.56762561511668E-07  -6.61501082643838E-17  -7.56762561577818E-07
     -2.58284972413678E-27
      6.50000000000000E-02
      9.75000000000001E-01   9.75000000000001E-01   0.00000000000000E+00   0.00000000000000E+00   7.57658108860793E-07
      2.33843114456001E-17   7.57658108884178E-07  -1.47728794754685E-29   0.00000000000000E+00   0.00000000000000E+00
      0.00000000000000E+00   0.00000000000000E+00  -7.57658108974620E-07   9.04423568577501E-17  -7.57658108884178E-07
      1.27332846272730E-27
      6.60000000000000E-02
      9.90000000000001E-01   9.90000000000001E-01   0.00000000000000E+00   0.00000000000000E+00   7.58558375822439E-07
      2.33342267392756E-17   7.58558375845773E-07  -8.82441398350403E-30   0.00000000000000E+00   0.00000000000000E+00
      0.00000000000000E+00   0.00000000000000E+00  -7.58558375830732E-07  -1.50438507417251E-17  -7.58558375845776E-07
      5.73946175679386E-27
      6.70000000000000E-02
      1.00500000000000E+00   1.00500000000000E+00   0.00000000000000E+00   0.00000000000000E+00   7.59463615574759E-07
      2.32665809652095E-17   7.59463615598026E-07   1.17638692240681E-30   0.00000000000000E+00   0.00000000000000E+00
      0.00000000000000E+00   0.00000000000000E+00  -7.59463615673288E-07   7.52590988128853E-17  -7.59463615598029E-07
      3.96253082256383E-27
      6.80000000000000E-02
      1.02000000000000E+00   1.02000000000000E+00   0.00000000000000E+00   0.00000000000000E+00   7.60373940807248E-07
      2.31038527380038E-17   7.60373940830351E-07   4.29124175551481E-30   0.00000000000000E+00   0.00000000000000E+00
      0.00000000000000E+00   0.00000000000000E+00  -7.60373940852719E-07   2.23641659186934E-17  -7.60373940830355E-07
     -3.90906418814699E-27
      6.90000000000000E-02