DF-ISE text

Info {
  version   = 1.0
  type      = xyplot
  datasets  = [
    "time"
    "ntype OuterVoltage" "ntype InnerVoltage" "ntype QuasiFermiPotential" "ntype DisplacementCurrent" "ntype eCurrent"
    "ntype hCurrent" "ntype TotalCurrent" "ntype Charge" "ptype OuterVoltage" "ptype InnerVoltage"
    "ptype QuasiFermiPotential" "ptype DisplacementCurrent" "ptype eCurrent" "ptype hCurrent" "ptype TotalCurrent"
    "ptype Charge" ]
  functions = [
    Time
    OuterVoltage InnerVoltage QuasiFermiPotential DisplacementCurrent eCurrent
    hCurrent TotalCurrent Charge OuterVoltage InnerVoltage
    QuasiFermiPotential DisplacementCurrent eCurrent hCurrent TotalCurrent
    Charge ]
}

Data {
      0.00000000000000E+00
      0.00000000000000E+00   0.00000000000000E+00   0.00000000000000E+00   0.00000000000000E+00   3.16049397556684E-06
     -3.16049397556683E-06   6.08307361489423E-21  -7.81586632637634E-30   0.00000000000000E+00   0.00000000000000E+00
      0.00000000000000E+00   0.00000000000000E+00   1.79183677526598E-05  -1.79183677526596E-05   1.57053900602724E-19
     -2.64258235779071E-27
      0.00000000000000E+00
      0.00000000000000E+00   0.00000000000000E+00   0.00000000000000E+00   0.00000000000000E+00   1.16985047155819E-05
     -3.16038413227107E-06   8.53812058331088E-06  -3.12090309491986E-30   0.00000000000000E+00   0.00000000000000E+00
      0.00000000000000E+00   0.00000000000000E+00   2.18132237688806E-06  -1.07194431055664E-05  -8.53812072867832E-06
     -1.13371038706232E-27
      0.00000000000000E+00
      0.00000000000000E+00   0.00000000000000E+00   0.00000000000000E+00   0.00000000000000E+00   1.09210141357183E-05
     -2.38913634302487E-18   1.09210141357159E-05  -4.84012151494112E-30   0.00000000000000E+00   0.00000000000000E+00
      0.00000000000000E+00   0.00000000000000E+00  -1.09210141356923E-05  -2.36291313290876E-17  -1.09210141357160E-05
      9.02715171943758E-28
      1.00000000000000E-03
      1.50000000000000E-02   1.50000000000000E-02   0.00000000000000E+00   0.00000000000000E+00   1.09377504260836E-05
     -1.10007346079797E-16   1.09377504259736E-05  -3.63500534892798E-30   0.00000000000000E+00   0.00000000000000E+00
      0.00000000000000E+00   0.00000000000000E+00  -1.09377504258451E-05  -1.28598379064858E-16  -1.09377504259737E-05
     -6.52559063405220E-28
      2.00000000000000E-03
      3.00000000000000E-02   3.00000000000000E-02   0.00000000000000E+00   0.00000000000000E+00   1.09540625450011E-05
      1.49702018477949E-16   1.09540625451508E-05   8.46756653660428E-31   0.00000000000000E+00   0.00000000000000E+00
      0.00000000000000E+00   0.00000000000000E+00  -1.09540625451966E-05   4.58496109608520E-17  -1.09540625451508E-05
      6.94824316946499E-28
      3.00000000000000E-03
      4.50000000000000E-02   4.50000000000000E-02   0.00000000000000E+00   0.00000000000000E+00   1.09699815320689E-05
      1.39639167396712E-16   1.09699815322085E-05   7.96858493712581E-31   0.00000000000000E+00   0.00000000000000E+00
      0.00000000000000E+00   0.00000000000000E+00  -1.09699815322429E-05   3.43745157989741E-17  -1.09699815322085E-05
     -1.41045465452580E-29
      4.00000000000000E-03
      6.00000000000000E-02   6.00000000000000E-02   0.00000000000000E+00   0.00000000000000E+00   1.09855315242225E-05
      1.26330994381746E-16   1.09855315243488E-05  -1.59825318378406E-30   0.00000000000000E+00   0.00000000000000E+00
      0.00000000000000E+00   0.00000000000000E+00  -1.09855315243072E-05  -4.16166147543769E-17  -1.09855315243488E-05
     -1.48167898562226E-27
      5.00000000000000E-03
      7.50000000000000E-02   7.50000000000000E-02   0.00000000000000E+00   0.00000000000000E+00   1.10007319380887E-05
      1.07789959898231E-16   1.10007319381965E-05   5.10322090375704E-30   0.00000000000000E+00   0.00000000000000E+00
      0.00000000000000E+00   0.00000000000000E+00  -1.10007319382492E-05   5.28130485479140E-17  -1.10007319381964E-05
      2.03318369067492E-28
      6.00000000000000E-03
      9.00000000000000E-02   9.00000000000000E-02   0.00000000000000E+00   0.00000000000000E+00   1.10155993876594E-05
      9.33365915704731E-17   1.10155993877527E-05  -8.98620498697129E-30   0.00000000000000E+00   0.00000000000000E+00
      0.00000000000000E+00   0.00000000000000E+00  -1.10155993877288E-05  -2.40791853487014E-17  -1.10155993877529E-05
      7.85209541462938E-28
      7.00000000000000E-03
      1.05000000000000E-01   1.05000000000000E-01   0.00000000000000E+00   0.00000000000000E+00   1.10301490019545E-05
      8.07425413713605E-17   1.10301490020353E-05   3.18440984394439E-30   0.00000000000000E+00   0.00000000000000E+00
      0.00000000000000E+00   0.00000000000000E+00  -1.10301490020384E-05   2.99246070378235E-18  -1.10301490020354E-05
      9.80979679789229E-28
      8.00000000000000E-03
      1.20000000000000E-01   1.20000000000000E-01   0.00000000000000E+00   0.00000000000000E+00   1.10443949847705E-05
      7.27169631641012E-17   1.10443949848432E-05   8.99678944514204E-31   0.00000000000000E+00   0.00000000000000E+00
      0.00000000000000E+00   0.00000000000000E+00  -1.10443949848299E-05  -1.33594379234390E-17  -1.10443949848433E-05
     -6.75542458290289E-28
      9.00000000000000E-03
      1.35000000000000E-01   1.35000000000000E-01   0.00000000000000E+00   0.00000000000000E+00   1.10583505468192E-05
      6.57489751528312E-17   1.10583505468850E-05  -8.71705733634351E-30   0.00000000000000E+00   0.00000000000000E+00
      0.00000000000000E+00   0.00000000000000E+00  -1.10583505468416E-05  -4.35199093361055E-17  -1.10583505468851E-05
      2.50506907723626E-27
      1.00000000000000E-02
      1.50000000000000E-01   1.50000000000000E-01   0.00000000000000E+00   0.00000000000000E+00   1.10720276380970E-05
      6.20519968842000E-17   1.10720276381590E-05   4.35626056999231E-30   0.00000000000000E+00   0.00000000000000E+00
      0.00000000000000E+00   0.00000000000000E+00  -1.10720276381665E-05   7.49117014534276E-18  -1.10720276381590E-05
     -2.79282118119732E-27
      1.10000000000000E-02
      1.65000000000000E-01   1.65000000000000E-01   0.00000000000000E+00   0.00000000000000E+00   1.10854368745267E-05
      5.73449270500527E-17   1.10854368745841E-05   1.16852418205139E-29   0.00000000000000E+00   0.00000000000000E+00
      0.00000000000000E+00   0.00000000000000E+00  -1.10854368745176E-05  -6.66563403248034E-17  -1.10854368745842E-05
     -6.99735505537730E-28
      1.20000000000000E-02
      1.80000000000000E-01   1.80000000000000E-01   0.00000000000000E+00   0.00000000000000E+00   1.10985878335173E-05
      5.26539597554984E-17   1.10985878335699E-05   9.85564262242619E-30   0.00000000000000E+00   0.00000000000000E+00
      0.00000000000000E+00   0.00000000000000E+00  -1.10985878336130E-05   4.31370666913801E-17  -1.10985878335698E-05
     -5.26731024671281E-28
      1.30000000000000E-02
      1.95000000000000E-01   1.95000000000000E-01   0.00000000000000E+00   0.00000000000000E+00   1.11114896053219E-05
      4.88397651298857E-17   1.11114896053707E-05   9.72258086256526E-31   0.00000000000000E+00   0.00000000000000E+00
      0.00000000000000E+00   0.00000000000000E+00  -1.11114896053123E-05  -5.84949579311280E-17  -1.11114896053708E-05
      5.68560803362106E-28
      1.40000000000000E-02
      2.10000000000000E-01   2.10000000000000E-01   0.00000000000000E+00   0.00000000000000E+00   1.11241513063865E-05
      4.71190146009813E-17   1.11241513064337E-05   3.92229778499134E-30   0.00000000000000E+00   0.00000000000000E+00
      0.00000000000000E+00   0.00000000000000E+00  -1.11241513063958E-05  -3.77891782107034E-17  -1.11241513064336E-05
      1.25975616322149E-27
      1.50000000000000E-02
      2.25000000000000E-01   2.25000000000000E-01   0.00000000000000E+00   0.00000000000000E+00   1.11365823177824E-05
      4.65919895024338E-17   1.11365823178290E-05  -5.52508716513429E-30   0.00000000000000E+00   0.00000000000000E+00
      0.00000000000000E+00   0.00000000000000E+00  -1.11365823178622E-05   3.31459628280078E-17  -1.11365823178291E-05
      1.54552443730826E-27
      1.60000000000000E-02
      2.40000000000000E-01   2.40000000000000E-01   0.00000000000000E+00   0.00000000000000E+00   1.11487921509697E-05
      4.68533251279024E-17   1.11487921510165E-05   5.44343563067418E-32   0.00000000000000E+00   0.00000000000000E+00
      0.00000000000000E+00   0.00000000000000E+00  -1.11487921509879E-05  -2.86391397413843E-17  -1.11487921510165E-05
      9.30706527609047E-28
      1.70000000000000E-02
      2.55000000000000E-01   2.55000000000000E-01   0.00000000000000E+00   0.00000000000000E+00   1.11607901124893E-05
      4.66447265752068E-17   1.11607901125359E-05  -8.17422583872906E-30   0.00000000000000E+00   0.00000000000000E+00
      0.00000000000000E+00   0.00000000000000E+00  -1.11607901124858E-05  -4.98878570038989E-17  -1.11607901125357E-05
      1.02505941187407E-27
      1.80000000000000E-02
      2.70000000000000E-01   2.70000000000000E-01   0.00000000000000E+00   0.00000000000000E+00   1.11725849171582E-05
      4.70857240301435E-17   1.11725849172053E-05  -7.25186591242037E-30   0.00000000000000E+00   0.00000000000000E+00
      0.00000000000000E+00   0.00000000000000E+00  -1.11725849171862E-05  -1.89506871519033E-17  -1.11725849172051E-05
     -4.12709192994092E-28
      1.90000000000000E-02
      2.85000000000000E-01   2.85000000000000E-01   0.00000000000000E+00   0.00000000000000E+00   1.11841846108561E-05
      4.67710432405587E-17   1.11841846109029E-05  -7.98370559165546E-31   0.00000000000000E+00   0.00000000000000E+00
      0.00000000000000E+00   0.00000000000000E+00  -1.11841846108632E-05  -3.96339577718069E-17  -1.11841846109029E-05
      3.58879662868537E-28
      2.00000000000000E-02
      3.00000000000000E-01   3.00000000000000E-01   0.00000000000000E+00   0.00000000000000E+00   1.11955967235744E-05
      4.54859329142597E-17   1.11955967236199E-05   4.86280249673560E-30   0.00000000000000E+00   0.00000000000000E+00
      0.00000000000000E+00   0.00000000000000E+00  -1.11955967236419E-05   2.19630517762424E-17  -1.11955967236199E-05
     -5.68826926881828E-28
      2.10000000000000E-02
      3.15000000000000E-01   3.15000000000000E-01   0.00000000000000E+00   0.00000000000000E+00   1.12068286084731E-05
      4.40748920552114E-17   1.12068286085172E-05  -3.97824420675104E-30   0.00000000000000E+00   0.00000000000000E+00
      0.00000000000000E+00   0.00000000000000E+00  -1.12068286085745E-05   5.74061768615856E-17  -1.12068286085171E-05
      4.88312465642345E-28
      2.20000000000000E-02
      3.30000000000000E-01   3.30000000000000E-01   0.00000000000000E+00   0.00000000000000E+00   1.12178877848997E-05
      4.34715871360954E-17   1.12178877849431E-05   4.19144543561912E-30   0.00000000000000E+00   0.00000000000000E+00
      0.00000000000000E+00   0.00000000000000E+00  -1.12178877849703E-05   2.73579123429343E-17  -1.12178877849430E-05
      6.75106983439835E-28
      2.30000000000000E-02
      3.45000000000000E-01   3.45000000000000E-01   0.00000000000000E+00   0.00000000000000E+00   1.12287820962803E-05
      4.30656899447951E-17   1.12287820963234E-05   8.10769495879859E-30   0.00000000000000E+00   0.00000000000000E+00
      0.00000000000000E+00   0.00000000000000E+00  -1.12287820963760E-05   5.26652796512762E-17  -1.12287820963233E-05
     -2.33051624134597E-28
      2.40000000000000E-02
      3.60000000000000E-01   3.60000000000000E-01   0.00000000000000E+00   0.00000000000000E+00   1.12395196270881E-05
      4.34324559721162E-17   1.12395196271316E-05   1.12815203445722E-29   0.00000000000000E+00   0.00000000000000E+00
      0.00000000000000E+00   0.00000000000000E+00  -1.12395196271629E-05   3.13468759848981E-17  -1.12395196271316E-05
     -4.45611737250612E-28
      2.50000000000000E-02
      3.75000000000000E-01   3.75000000000000E-01   0.00000000000000E+00   0.00000000000000E+00   1.12501084404679E-05
      4.36563426756431E-17   1.12501084405115E-05  -6.24936651710455E-30   0.00000000000000E+00   0.00000000000000E+00
      0.00000000000000E+00   0.00000000000000E+00  -1.12501084405360E-05   2.44763678241882E-17  -1.12501084405115E-05
     -2.52217356164020E-27
      2.60000000000000E-02
      3.90000000000000E-01   3.90000000000000E-01   0.00000000000000E+00   0.00000000000000E+00   1.12605562792610E-05
      4.37707000312292E-17   1.12605562793048E-05   6.37486794970065E-30   0.00000000000000E+00   0.00000000000000E+00
      0.00000000000000E+00   0.00000000000000E+00  -1.12605562793428E-05   3.80035061071472E-17  -1.12605562793048E-05
     -1.65238512700021E-28
      2.70000000000000E-02
      4.05000000000000E-01   4.05000000000000E-01   0.00000000000000E+00   0.00000000000000E+00   1.12708703751507E-05
      4.39562262158451E-17   1.12708703751946E-05  -9.15404425225041E-30   0.00000000000000E+00   0.00000000000000E+00
      0.00000000000000E+00   0.00000000000000E+00  -1.12708703752020E-05   7.43235215913724E-18  -1.12708703751946E-05
     -8.88513853209510E-28
      2.80000000000000E-02
      4.20000000000000E-01   4.20000000000000E-01   0.00000000000000E+00   0.00000000000000E+00   1.12810574471972E-05
      4.31051667379569E-17   1.12810574472403E-05   3.47170228000775E-30   0.00000000000000E+00   0.00000000000000E+00
      0.00000000000000E+00   0.00000000000000E+00  -1.12810574472202E-05  -2.00901893040017E-17  -1.12810574472403E-05
      5.51335353721928E-28
      2.90000000000000E-02
      4.35000000000000E-01   4.35000000000000E-01   0.00000000000000E+00   0.00000000000000E+00   1.12911238911197E-05
      4.13905727288687E-17   1.12911238911611E-05  -3.06798080406608E-30   0.00000000000000E+00   0.00000000000000E+00
      0.00000000000000E+00   0.00000000000000E+00  -1.12911238911803E-05   1.93276357389731E-17  -1.12911238911610E-05
      8.53095232039257E-28
      3.00000000000000E-02
      4.50000000000000E-01   4.50000000000000E-01   0.00000000000000E+00   0.00000000000000E+00   1.13010759911467E-05
      4.04613405705914E-17   1.13010759911872E-05   2.45876963306647E-29   0.00000000000000E+00   0.00000000000000E+00
      0.00000000000000E+00   0.00000000000000E+00  -1.13010759912881E-05   1.00819346185264E-16  -1.13010759911873E-05
      3.42043721289043E-27
      3.10000000000000E-02
      4.65000000000000E-01   4.65000000000000E-01   0.00000000000000E+00   0.00000000000000E+00   1.13109201472939E-05
      3.95961459392234E-17   1.13109201473335E-05   9.71048433894154E-30   0.00000000000000E+00   0.00000000000000E+00
      0.00000000000000E+00   0.00000000000000E+00  -1.13109201472918E-05  -4.16996851082935E-17  -1.13109201473334E-05
     -2.11631100101713E-27
      3.20000000000000E-02
      4.80000000000000E-01   4.80000000000000E-01   0.00000000000000E+00   0.00000000000000E+00   1.13206629471497E-05
      3.96273756960596E-17   1.13206629471893E-05   9.28256981575244E-30   0.00000000000000E+00   0.00000000000000E+00
      0.00000000000000E+00   0.00000000000000E+00  -1.13206629472612E-05   7.19300773046130E-17  -1.13206629471893E-05
     -1.14631496467824E-27
      3.30000000000000E-02
      4.95000000000000E-01   4.95000000000000E-01   0.00000000000000E+00   0.00000000000000E+00   1.13303110484568E-05
      3.98674589071134E-17   1.13303110484967E-05   1.11529947810702E-29   0.00000000000000E+00   0.00000000000000E+00
      0.00000000000000E+00   0.00000000000000E+00  -1.13303110485817E-05   8.50433257214225E-17  -1.13303110484966E-05
      8.54304884401629E-28
      3.40000000000000E-02
      5.10000000000000E-01   5.10000000000000E-01   0.00000000000000E+00   0.00000000000000E+00   1.13398709627980E-05
      4.01600593923820E-17   1.13398709628381E-05   1.52673248785881E-29   0.00000000000000E+00   0.00000000000000E+00
      0.00000000000000E+00   0.00000000000000E+00  -1.13398709629198E-05   8.16835443634899E-17  -1.13398709628381E-05
     -1.85870343392638E-27
      3.50000000000000E-02
      5.25000000000000E-01   5.25000000000000E-01   0.00000000000000E+00   0.00000000000000E+00   1.13493488279061E-05
      4.07175171404631E-17   1.13493488279468E-05  -1.44251044212866E-30   0.00000000000000E+00   0.00000000000000E+00
      0.00000000000000E+00   0.00000000000000E+00  -1.13493488279965E-05   4.99214894236002E-17  -1.13493488279466E-05
     -1.02433362045664E-27
      3.60000000000000E-02
      5.40000000000000E-01   5.40000000000000E-01   0.00000000000000E+00   0.00000000000000E+00   1.13587502581633E-05
      4.08900195854397E-17   1.13587502582042E-05  -2.61284910272360E-30   0.00000000000000E+00   0.00000000000000E+00
      0.00000000000000E+00   0.00000000000000E+00  -1.13587502582667E-05   6.25181172603516E-17  -1.13587502582041E-05
      2.25798548569814E-27
      3.70000000000000E-02
      5.55000000000000E-01   5.55000000000000E-01   0.00000000000000E+00   0.00000000000000E+00   1.13680803333376E-05
      4.06563758780954E-17   1.13680803333783E-05   5.74433665581422E-30   0.00000000000000E+00   0.00000000000000E+00
      0.00000000000000E+00   0.00000000000000E+00  -1.13680803335280E-05   1.49842519980976E-16  -1.13680803333781E-05
      1.98876525592862E-27
      3.80000000000000E-02
      5.70000000000000E-01   5.70000000000000E-01   0.00000000000000E+00   0.00000000000000E+00   1.13773437221371E-05
      4.05013212262961E-17   1.13773437221777E-05  -2.26658611399461E-30   0.00000000000000E+00   0.00000000000000E+00
      0.00000000000000E+00   0.00000000000000E+00  -1.13773437223173E-05   1.39462076724335E-16  -1.13773437221778E-05
     -3.67076267275970E-27
      3.90000000000000E-02
      5.85000000000000E-01   5.85000000000000E-01   0.00000000000000E+00   0.00000000000000E+00   1.13865448834299E-05
      3.98698864120761E-17   1.13865448834698E-05  -5.75340904853201E-30   0.00000000000000E+00   0.00000000000000E+00
      0.00000000000000E+00   0.00000000000000E+00  -1.13865448836461E-05   1.76326082299521E-16  -1.13865448834698E-05
      3.23122339036819E-28
      4.00000000000000E-02
      6.00000000000000E-01   6.00000000000000E-01   0.00000000000000E+00   0.00000000000000E+00   1.13956882601465E-05
      3.97122665436867E-17   1.13956882601863E-05   1.21131563437030E-29   0.00000000000000E+00   0.00000000000000E+00
      0.00000000000000E+00   0.00000000000000E+00  -1.13956882602478E-05   6.17174353960191E-17  -1.13956882601861E-05
     -1.02762387488229E-27
      4.10000000000000E-02
      6.15000000000000E-01   6.15000000000000E-01   0.00000000000000E+00   0.00000000000000E+00   1.14047783987473E-05
      3.89873093330481E-17   1.14047783987863E-05   5.38295301255557E-30   0.00000000000000E+00   0.00000000000000E+00
      0.00000000000000E+00   0.00000000000000E+00  -1.14047783990065E-05   2.20272586074467E-16  -1.14047783987862E-05
     -1.15207290992313E-28
      4.20000000000000E-02
      6.30000000000000E-01   6.30000000000000E-01   0.00000000000000E+00   0.00000000000000E+00   1.14138199305854E-05
      3.93134428696278E-17   1.14138199306247E-05  -4.88397141307711E-30   0.00000000000000E+00   0.00000000000000E+00
      0.00000000000000E+00   0.00000000000000E+00  -1.14138199308013E-05   1.76716549307997E-16  -1.14138199306245E-05
      3.78190553181444E-27
      4.30000000000000E-02
      6.45000000000000E-01   6.45000000000000E-01   0.00000000000000E+00   0.00000000000000E+00   1.14228174538728E-05
      3.96734864093462E-17   1.14228174539125E-05   6.74834811658301E-30   0.00000000000000E+00   0.00000000000000E+00
      0.00000000000000E+00   0.00000000000000E+00  -1.14228174540989E-05   1.86378003937948E-16  -1.14228174539126E-05
      2.13643961632700E-27
      4.40000000000000E-02
      6.60000000000000E-01   6.60000000000000E-01   0.00000000000000E+00   0.00000000000000E+00   1.14317754090556E-05
      4.00371109914243E-17   1.14317754090957E-05  -3.75748265061815E-30   0.00000000000000E+00   0.00000000000000E+00
      0.00000000000000E+00   0.00000000000000E+00  -1.14317754092641E-05   1.68342925214023E-16  -1.14317754090957E-05
      3.62847322617117E-28
      4.50000000000000E-02
      6.75000000000000E-01   6.75000000000000E-01   0.00000000000000E+00   0.00000000000000E+00   1.14406979340576E-05
      4.03532877073153E-17   1.14406979340980E-05  -2.14864500866333E-30   0.00000000000000E+00   0.00000000000000E+00
      0.00000000000000E+00   0.00000000000000E+00  -1.14406979342476E-05   1.49596746849502E-16  -1.14406979340980E-05
      1.78307596823088E-27
      4.60000000000000E-02
      6.90000000000001E-01   6.90000000000001E-01   0.00000000000000E+00   0.00000000000000E+00   1.14495888042071E-05
      4.06250872562891E-17   1.14495888042477E-05   8.37684260942637E-31   0.00000000000000E+00   0.00000000000000E+00
      0.00000000000000E+00   0.00000000000000E+00  -1.14495888044313E-05   1.83561933467401E-16  -1.14495888042478E-05
     -4.84199647610280E-28
      4.70000000000000E-02
      7.05000000000001E-01   7.05000000000001E-01   0.00000000000000E+00   0.00000000000000E+00   1.14584514727414E-05
      4.05323317246195E-17   1.14584514727819E-05  -1.25108295578328E-29   0.00000000000000E+00   0.00000000000000E+00
      0.00000000000000E+00   0.00000000000000E+00  -1.14584514729344E-05   1.52666868270447E-16  -1.14584514727817E-05
     -3.91927365408541E-28
      4.80000000000000E-02
      7.20000000000001E-01   7.20000000000001E-01   0.00000000000000E+00   0.00000000000000E+00   1.14672891975449E-05
      4.02993376921294E-17   1.14672891975852E-05  -3.43692477458956E-30   0.00000000000000E+00   0.00000000000000E+00
      0.00000000000000E+00   0.00000000000000E+00  -1.14672891978866E-05   3.01426341926084E-16  -1.14672891975851E-05
     -8.79078564783008E-28
      4.90000000000000E-02
      7.35000000000001E-01   7.35000000000001E-01   0.00000000000000E+00   0.00000000000000E+00   1.14761051965849E-05
      4.00395206748822E-17   1.14761051966249E-05  -5.88193461203404E-30   0.00000000000000E+00   0.00000000000000E+00
      0.00000000000000E+00   0.00000000000000E+00  -1.14761051968118E-05   1.87006670478433E-16  -1.14761051966248E-05
      1.00038250368168E-27
      5.00000000000000E-02
      7.50000000000001E-01   7.50000000000001E-01   0.00000000000000E+00   0.00000000000000E+00   1.14849027906260E-05
      3.97109315509687E-17   1.14849027906657E-05  -3.31142334199346E-31   0.00000000000000E+00   0.00000000000000E+00
      0.00000000000000E+00   0.00000000000000E+00  -1.14849027908957E-05   2.30019412732672E-16  -1.14849027906656E-05
      2.54951170502980E-27
      5.10000000000000E-02
      7.65000000000001E-01   7.65000000000001E-01   0.00000000000000E+00   0.00000000000000E+00   1.14936854722394E-05
      3.97393390295101E-17   1.14936854722792E-05   3.85879103596680E-30   0.00000000000000E+00   0.00000000000000E+00
      0.00000000000000E+00   0.00000000000000E+00  -1.14936854725728E-05   2.93672703139609E-16  -1.14936854722791E-05
     -3.43976745764113E-28
      5.20000000000000E-02
      7.80000000000001E-01   7.80000000000001E-01   0.00000000000000E+00   0.00000000000000E+00   1.15024568864350E-05
      3.96679298801892E-17   1.15024568864747E-05  -4.35021230818045E-30   0.00000000000000E+00   0.00000000000000E+00
      0.00000000000000E+00   0.00000000000000E+00  -1.15024568867808E-05   3.06298090564631E-16  -1.15024568864746E-05
     -2.41011136679005E-28
      5.30000000000000E-02
      7.95000000000001E-01   7.95000000000001E-01   0.00000000000000E+00   0.00000000000000E+00   1.15112207434390E-05
      3.95072609143541E-17   1.15112207434785E-05   1.05164152253719E-29   0.00000000000000E+00   0.00000000000000E+00
      0.00000000000000E+00   0.00000000000000E+00  -1.15112207436841E-05   2.05648072976366E-16  -1.15112207434785E-05
      1.59166057840913E-27
      5.40000000000000E-02
      8.10000000000001E-01   8.10000000000001E-01   0.00000000000000E+00   0.00000000000000E+00   1.15199806678003E-05
      3.96646329018140E-17   1.15199806678400E-05   9.96148720413374E-30   0.00000000000000E+00   0.00000000000000E+00
      0.00000000000000E+00   0.00000000000000E+00  -1.15199806681200E-05   2.79969652023722E-16  -1.15199806678400E-05
     -6.41701223800569E-27
      5.50000000000000E-02
      8.25000000000001E-01   8.25000000000001E-01   0.00000000000000E+00   0.00000000000000E+00   1.15287400775715E-05
      3.98195309403898E-17   1.15287400776113E-05  -9.87227534240880E-30   0.00000000000000E+00   0.00000000000000E+00
      0.00000000000000E+00   0.00000000000000E+00  -1.15287400779912E-05   3.79815338119505E-16  -1.15287400776114E-05
      3.15380563917638E-28
      5.60000000000000E-02
      8.40000000000001E-01   8.40000000000001E-01   0.00000000000000E+00   0.00000000000000E+00   1.15375021276515E-05
      3.98661708983624E-17   1.15375021276913E-05   3.05134808408347E-30   0.00000000000000E+00   0.00000000000000E+00
      0.00000000000000E+00   0.00000000000000E+00  -1.15375021280544E-05   3.63015031531652E-16  -1.15375021276913E-05
     -6.38696447332437E-29
      5.70000000000000E-02
      8.55000000000001E-01   8.55000000000001E-01   0.00000000000000E+00   0.00000000000000E+00   1.15462697029660E-05
      3.97055807791846E-17   1.15462697030057E-05   3.35678530558241E-30   0.00000000000000E+00   0.00000000000000E+00
      0.00000000000000E+00   0.00000000000000E+00  -1.15462697034328E-05   4.27254375641126E-16  -1.15462697030056E-05
     -3.61540898065755E-28
      5.80000000000000E-02
      8.70000000000001E-01   8.70000000000001E-01   0.00000000000000E+00   0.00000000000000E+00   1.15550454903179E-05
      3.91136421997679E-17   1.15550454903570E-05  -8.16515344601126E-30   0.00000000000000E+00   0.00000000000000E+00
      0.00000000000000E+00   0.00000000000000E+00  -1.15550454908059E-05   4.48761745582578E-16  -1.15550454903571E-05
     -1.71983534272607E-27
      5.90000000000000E-02
      8.85000000000001E-01   8.85000000000001E-01   0.00000000000000E+00   0.00000000000000E+00   1.15638320879459E-05
      3.89261524093580E-17   1.15638320879848E-05   4.99284012569059E-30   0.00000000000000E+00   0.00000000000000E+00
      0.00000000000000E+00   0.00000000000000E+00  -1.15638320884118E-05   4.26820629918478E-16  -1.15638320879850E-05
     -1.45627628601245E-27
      6.00000000000000E-02
      9.00000000000001E-01   9.00000000000001E-01   0.00000000000000E+00   0.00000000000000E+00   1.15726321100077E-05
      3.86289296738169E-17   1.15726321100464E-05  -1.67310042370583E-29   0.00000000000000E+00   0.00000000000000E+00
      0.00000000000000E+00   0.00000000000000E+00  -1.15726321104558E-05   4.09193264559199E-16  -1.15726321100466E-05
     -1.87534825043262E-27
      6.10000000000000E-02
      9.15000000000001E-01   9.15000000000001E-01   0.00000000000000E+00   0.00000000000000E+00   1.15814482738343E-05
      3.85447862492972E-17   1.15814482738728E-05  -1.92455690853391E-29   0.00000000000000E+00   0.00000000000000E+00
      0.00000000000000E+00   0.00000000000000E+00  -1.15814482742604E-05   3.87521135886598E-16  -1.15814482738729E-05
     -2.94671315473829E-28
      6.20000000000000E-02
      9.30000000000001E-01   9.30000000000001E-01   0.00000000000000E+00   0.00000000000000E+00   1.15902834079883E-05
      3.84690318930955E-17   1.15902834080267E-05   1.58570304052445E-29   0.00000000000000E+00   0.00000000000000E+00
      0.00000000000000E+00   0.00000000000000E+00  -1.15902834085008E-05   4.74098120360121E-16  -1.15902834080267E-05
     -1.31658563120573E-28
      6.30000000000000E-02
      9.45000000000001E-01   9.45000000000001E-01   0.00000000000000E+00   0.00000000000000E+00   1.15991404034003E-05
      3.85729609681860E-17   1.15991404034388E-05  -1.12134773991888E-29   0.00000000000000E+00   0.00000000000000E+00
      0.00000000000000E+00   0.00000000000000E+00  -1.15991404038703E-05   4.31557109015751E-16  -1.15991404034388E-05
     -1.87428375635373E-27
      6.40000000000000E-02
      9.60000000000001E-01   9.60000000000001E-01   0.00000000000000E+00   0.00000000000000E+00   1.16080221264626E-05
      3.84079349144668E-17   1.16080221265010E-05  -7.45901887947659E-30   0.00000000000000E+00   0.00000000000000E+00
      0.00000000000000E+00   0.00000000000000E+00  -1.16080221270250E-05   5.23870804539581E-16  -1.16080221265011E-05
     -2.96442246532341E-27
      6.50000000000000E-02
      9.75000000000001E-01   9.75000000000001E-01   0.00000000000000E+00   0.00000000000000E+00   1.16169313069389E-05
      3.86343015073793E-17   1.16169313069776E-05  -8.95898780881791E-30   0.00000000000000E+00   0.00000000000000E+00
      0.00000000000000E+00   0.00000000000000E+00  -1.16169313075344E-05   5.56763306687029E-16  -1.16169313069777E-05
     -8.83433313287548E-28
      6.60000000000000E-02
      9.90000000000001E-01   9.90000000000001E-01   0.00000000000000E+00   0.00000000000000E+00   1.16258704548124E-05
      3.87479848860592E-17   1.16258704548512E-05  -1.99592639791386E-30   0.00000000000000E+00   0.00000000000000E+00
      0.00000000000000E+00   0.00000000000000E+00  -1.16258704553201E-05   4.68841013004408E-16  -1.16258704548512E-05
     -2.49110968897448E-27
      6.70000000000000E-02
      1.00500000000000E+00   1.00500000000000E+00   0.00000000000000E+00   0.00000000000000E+00   1.16348418401613E-05
      3.87338734945858E-17   1.16348418402001E-05   2.54934235369907E-30   0.00000000000000E+00   0.00000000000000E+00
      0.00000000000000E+00   0.00000000000000E+00  -1.16348418408133E-05   6.13129264999373E-16  -1.16348418402002E-05
      3.30278642412612E-27
      6.80000000000000E-02
      1.02000000000000E+00   1.02000000000000E+00   0.00000000000000E+00   0.00000000000000E+00   1.16438475190523E-05
      3.84525243193041E-17   1.16438475190908E-05   8.67471950366049E-30   0.00000000000000E+00   0.00000000000000E+00
      0.00000000000000E+00   0.00000000000000E+00  -1.16438475196980E-05   6.07334806333235E-16  -1.16438475190907E-05
      2.22846996805627E-27
      6.90000000000000E-02