DF-ISE text

Info {
  version   = 1.0
  type      = xyplot
  datasets  = [
    "time"
    "ntype OuterVoltage" "ntype InnerVoltage" "ntype QuasiFermiPotential" "ntype DisplacementCurrent" "ntype eCurrent"
    "ntype hCurrent" "ntype TotalCurrent" "ntype Charge" "ptype OuterVoltage" "ptype InnerVoltage"
    "ptype QuasiFermiPotential" "ptype DisplacementCurrent" "ptype eCurrent" "ptype hCurrent" "ptype TotalCurrent"
    "ptype Charge" ]
  functions = [
    Time
    OuterVoltage InnerVoltage QuasiFermiPotential DisplacementCurrent eCurrent
    hCurrent TotalCurrent Charge OuterVoltage InnerVoltage
    QuasiFermiPotential DisplacementCurrent eCurrent hCurrent TotalCurrent
    Charge ]
}

Data {
      0.00000000000000E+00
      0.00000000000000E+00   0.00000000000000E+00   0.00000000000000E+00   0.00000000000000E+00   3.38544597645451E-08
     -3.38544597647191E-08  -1.74054536025031E-19   3.58771115132398E-14   0.00000000000000E+00   0.00000000000000E+00
      0.00000000000000E+00   0.00000000000000E+00   8.10001262885725E-08  -8.10001262884021E-08   1.70326061217038E-19
     -3.74867594382623E-14
      0.00000000000000E+00
      0.00000000000000E+00   0.00000000000000E+00   0.00000000000000E+00   0.00000000000000E+00   9.10847191579785E-08
     -3.38497279612070E-08   5.72349911967715E-08   3.58770427079311E-14   0.00000000000000E+00   0.00000000000000E+00
      0.00000000000000E+00   0.00000000000000E+00   1.29045692859432E-08  -7.01395605012263E-08  -5.72349912152832E-08
     -3.74866906331222E-14
      0.00000000000000E+00
      0.00000000000000E+00   0.00000000000000E+00   0.00000000000000E+00   0.00000000000000E+00   8.81263401316194E-08
     -3.00278951631713E-17   8.81263401015915E-08   3.58754029638520E-14   0.00000000000000E+00   0.00000000000000E+00
      0.00000000000000E+00   0.00000000000000E+00  -8.81263401164584E-08   1.48475932019879E-17  -8.81263401016108E-08
     -3.74850498089586E-14
      1.00000000000000E-03
      1.50000000000000E-02   1.50000000000000E-02   0.00000000000000E+00   0.00000000000000E+00   8.85830731252379E-08
      2.31418820739518E-20   8.85830731252611E-08   3.64774736980816E-14   0.00000000000000E+00   0.00000000000000E+00
      0.00000000000000E+00   0.00000000000000E+00  -8.85830731330322E-08   7.75484574146678E-18  -8.85830731252773E-08
     -3.80871205432360E-14
      2.00000000000000E-03
      3.00000000000000E-02   3.00000000000000E-02   0.00000000000000E+00   0.00000000000000E+00   8.89707696382583E-08
     -3.15943110729463E-18   8.89707696350989E-08   3.70765305278900E-14   0.00000000000000E+00   0.00000000000000E+00
      0.00000000000000E+00   0.00000000000000E+00  -8.89707696251771E-08  -9.89263102394580E-18  -8.89707696350697E-08
     -3.86861773730960E-14
      3.00000000000000E-03
      4.50000000000000E-02   4.50000000000000E-02   0.00000000000000E+00   0.00000000000000E+00   8.93078735618245E-08
     -2.08292235457127E-18   8.93078735597416E-08   3.76731241375496E-14   0.00000000000000E+00   0.00000000000000E+00
      0.00000000000000E+00   0.00000000000000E+00  -8.93078735374237E-08  -2.23169071025556E-17  -8.93078735597406E-08
     -3.92827709828083E-14
      4.00000000000000E-03
      6.00000000000000E-02   6.00000000000000E-02   0.00000000000000E+00   0.00000000000000E+00   8.96054096778279E-08
     -1.42548179647153E-18   8.96054096764024E-08   3.82676393514642E-14   0.00000000000000E+00   0.00000000000000E+00
      0.00000000000000E+00   0.00000000000000E+00  -8.96054096734125E-08  -2.98556389284492E-18  -8.96054096763981E-08
     -3.98772861967781E-14
      5.00000000000000E-03
      7.50000000000000E-02   7.50000000000000E-02   0.00000000000000E+00   0.00000000000000E+00   8.98703314754207E-08
     -1.00990414437896E-18   8.98703314744108E-08   3.88603513205133E-14   0.00000000000000E+00   0.00000000000000E+00
      0.00000000000000E+00   0.00000000000000E+00  -8.98703314881856E-08   1.37820880190827E-17  -8.98703314744035E-08
     -4.04699981658909E-14
      6.00000000000000E-03
      9.00000000000000E-02   9.00000000000000E-02   0.00000000000000E+00   0.00000000000000E+00   9.01079266149480E-08
     -7.51770736159649E-19   9.01079266141963E-08   3.94514624276025E-14   0.00000000000000E+00   0.00000000000000E+00
      0.00000000000000E+00   0.00000000000000E+00  -9.01079266145410E-08   3.22039901956988E-19  -9.01079266142190E-08
     -4.10611092730499E-14
      7.00000000000000E-03
      1.05000000000000E-01   1.05000000000000E-01   0.00000000000000E+00   0.00000000000000E+00   9.03228881816577E-08
     -5.42823060861475E-19   9.03228881811149E-08   4.00411260828993E-14   0.00000000000000E+00   0.00000000000000E+00
      0.00000000000000E+00   0.00000000000000E+00  -9.03228881896716E-08   8.57577936419508E-18  -9.03228881810958E-08
     -4.16507729284164E-14
      8.00000000000000E-03
      1.20000000000000E-01   1.20000000000000E-01   0.00000000000000E+00   0.00000000000000E+00   9.05194077635028E-08
     -3.85246480502096E-19   9.05194077631175E-08   4.06294620299261E-14   0.00000000000000E+00   0.00000000000000E+00
      0.00000000000000E+00   0.00000000000000E+00  -9.05194077750270E-08   1.19201408616774E-17  -9.05194077631068E-08
     -4.22391088755173E-14
      9.00000000000000E-03
      1.35000000000000E-01   1.35000000000000E-01   0.00000000000000E+00   0.00000000000000E+00   9.07009860124994E-08
     -2.93585579068423E-19   9.07009860122058E-08   4.12165662703545E-14   0.00000000000000E+00   0.00000000000000E+00
      0.00000000000000E+00   0.00000000000000E+00  -9.07009860162978E-08   4.08047714273145E-18  -9.07009860122174E-08
     -4.28262131160242E-14
      1.00000000000000E-02
      1.50000000000000E-01   1.50000000000000E-01   0.00000000000000E+00   0.00000000000000E+00   9.08703569580302E-08
     -1.70501525407085E-19   9.08703569578597E-08   4.18025175992686E-14   0.00000000000000E+00   0.00000000000000E+00
      0.00000000000000E+00   0.00000000000000E+00  -9.08703569422971E-08  -1.55471939659280E-17  -9.08703569578443E-08
     -4.34121644450201E-14
      1.10000000000000E-02
      1.65000000000000E-01   1.65000000000000E-01   0.00000000000000E+00   0.00000000000000E+00   9.10295670517140E-08
     -1.63788885198211E-19   9.10295670515502E-08   4.23873819992863E-14   0.00000000000000E+00   0.00000000000000E+00
      0.00000000000000E+00   0.00000000000000E+00  -9.10295670460252E-08  -5.51922900009393E-18  -9.10295670515444E-08
     -4.39970288451204E-14
      1.20000000000000E-02
      1.80000000000000E-01   1.80000000000000E-01   0.00000000000000E+00   0.00000000000000E+00   9.11801234321775E-08
     -1.66323125110331E-19   9.11801234320112E-08   4.29712156683628E-14   0.00000000000000E+00   0.00000000000000E+00
      0.00000000000000E+00   0.00000000000000E+00  -9.11801234475991E-08   1.55962982762258E-17  -9.11801234320028E-08
     -4.45808625142823E-14
      1.30000000000000E-02
      1.95000000000000E-01   1.95000000000000E-01   0.00000000000000E+00   0.00000000000000E+00   9.13231417262666E-08
     -1.34543390900220E-19   9.13231417261321E-08   4.35540671615305E-14   0.00000000000000E+00   0.00000000000000E+00
      0.00000000000000E+00   0.00000000000000E+00  -9.13231417323776E-08   6.25436223937027E-18  -9.13231417261233E-08
     -4.51637140075351E-14
      1.40000000000000E-02
      2.10000000000000E-01   2.10000000000000E-01   0.00000000000000E+00   0.00000000000000E+00   9.14594645341328E-08
     -9.83128877713314E-20   9.14594645340345E-08   4.41359789459627E-14   0.00000000000000E+00   0.00000000000000E+00
      0.00000000000000E+00   0.00000000000000E+00  -9.14594645391060E-08   5.06295518116348E-18  -9.14594645340430E-08
     -4.57456257920539E-14
      1.50000000000000E-02
      2.25000000000000E-01   2.25000000000000E-01   0.00000000000000E+00   0.00000000000000E+00   9.15897469140687E-08
     -1.12288955631464E-19   9.15897469139564E-08   4.47169885581967E-14   0.00000000000000E+00   0.00000000000000E+00
      0.00000000000000E+00   0.00000000000000E+00  -9.15897469181245E-08   4.14710802380079E-18  -9.15897469139774E-08
     -4.63266354043812E-14
      1.60000000000000E-02
      2.40000000000000E-01   2.40000000000000E-01   0.00000000000000E+00   0.00000000000000E+00   9.17145147865241E-08
     -6.66084055400041E-20   9.17145147864575E-08   4.52971294846159E-14   0.00000000000000E+00   0.00000000000000E+00
      0.00000000000000E+00   0.00000000000000E+00  -9.17145147997867E-08   1.32944841472442E-17  -9.17145147864922E-08
     -4.69067763308876E-14
      1.70000000000000E-02
      2.55000000000000E-01   2.55000000000000E-01   0.00000000000000E+00   0.00000000000000E+00   9.18342039001485E-08
     -5.55449723536671E-20   9.18342039000930E-08   4.58764318444188E-14   0.00000000000000E+00   0.00000000000000E+00
      0.00000000000000E+00   0.00000000000000E+00  -9.18342039059598E-08   5.88284792706471E-18  -9.18342039000770E-08
     -4.74860786907807E-14
      1.80000000000000E-02
      2.70000000000000E-01   2.70000000000000E-01   0.00000000000000E+00   0.00000000000000E+00   9.19491851507528E-08
     -3.15468648606489E-20   9.19491851507212E-08   4.64549229281422E-14   0.00000000000000E+00   0.00000000000000E+00
      0.00000000000000E+00   0.00000000000000E+00  -9.19491851334071E-08  -1.73033489018539E-17  -9.19491851507104E-08
     -4.80645697746008E-14
      1.90000000000000E-02
      2.85000000000000E-01   2.85000000000000E-01   0.00000000000000E+00   0.00000000000000E+00   9.20597813541014E-08
     -6.94701577926209E-20   9.20597813540319E-08   4.70326276281229E-14   0.00000000000000E+00   0.00000000000000E+00
      0.00000000000000E+00   0.00000000000000E+00  -9.20597813507280E-08  -3.29040397505356E-18  -9.20597813540184E-08
     -4.86422744746782E-14
      2.00000000000000E-02
      3.00000000000000E-01   3.00000000000000E-01   0.00000000000000E+00   0.00000000000000E+00   9.21662786187837E-08
     -9.44187033469041E-21   9.21662786187743E-08   4.76095687865221E-14   0.00000000000000E+00   0.00000000000000E+00
      0.00000000000000E+00   0.00000000000000E+00  -9.21662786298340E-08   1.10472871390959E-17  -9.21662786187867E-08
     -4.92192156331694E-14
      2.10000000000000E-02
      3.15000000000000E-01   3.15000000000000E-01   0.00000000000000E+00   0.00000000000000E+00   9.22689337878500E-08
     -2.22155266710689E-20   9.22689337878278E-08   4.81857674793899E-14   0.00000000000000E+00   0.00000000000000E+00
      0.00000000000000E+00   0.00000000000000E+00  -9.22689337820954E-08  -5.70976041497530E-18  -9.22689337878052E-08
     -4.97954143261349E-14
      2.20000000000000E-02
      3.30000000000000E-01   3.30000000000000E-01   0.00000000000000E+00   0.00000000000000E+00   9.23679797879052E-08
     -9.96972271558822E-21   9.23679797878952E-08   4.87612432503877E-14   0.00000000000000E+00   0.00000000000000E+00
      0.00000000000000E+00   0.00000000000000E+00  -9.23679797575312E-08  -3.03396263519156E-17  -9.23679797878708E-08
     -5.03708900972294E-14
      2.30000000000000E-02
      3.45000000000000E-01   3.45000000000000E-01   0.00000000000000E+00   0.00000000000000E+00   9.24636295795258E-08
      9.10408868962064E-21   9.24636295795349E-08   4.93360143044417E-14   0.00000000000000E+00   0.00000000000000E+00
      0.00000000000000E+00   0.00000000000000E+00  -9.24636295622895E-08  -1.72212734988487E-17  -9.24636295795108E-08
     -5.09456611513824E-14
      2.40000000000000E-02
      3.60000000000000E-01   3.60000000000000E-01   0.00000000000000E+00   0.00000000000000E+00   9.25560791630596E-08
     -2.59712315906938E-20   9.25560791630337E-08   4.99100976691870E-14   0.00000000000000E+00   0.00000000000000E+00
      0.00000000000000E+00   0.00000000000000E+00  -9.25560791493157E-08  -1.37063764650609E-17  -9.25560791630221E-08
     -5.15197445162280E-14
      2.50000000000000E-02
      3.75000000000000E-01   3.75000000000000E-01   0.00000000000000E+00   0.00000000000000E+00   9.26455098909663E-08
     -1.44183314519732E-20   9.26455098909518E-08   5.04835093303348E-14   0.00000000000000E+00   0.00000000000000E+00
      0.00000000000000E+00   0.00000000000000E+00  -9.26455098998392E-08   8.90947344035216E-18  -9.26455098909298E-08
     -5.20931561774776E-14
      2.60000000000000E-02
      3.90000000000000E-01   3.90000000000000E-01   0.00000000000000E+00   0.00000000000000E+00   9.27320902418759E-08
     -3.73777371813176E-21   9.27320902418722E-08   5.10562643457866E-14   0.00000000000000E+00   0.00000000000000E+00
      0.00000000000000E+00   0.00000000000000E+00  -9.27320902637206E-08   2.18146918948870E-17  -9.27320902419059E-08
     -5.26659111930327E-14
      2.70000000000000E-02
      4.05000000000000E-01   4.05000000000000E-01   0.00000000000000E+00   0.00000000000000E+00   9.28159771717869E-08
     -2.84412313912994E-20   9.28159771717585E-08   5.16283769423384E-14   0.00000000000000E+00   0.00000000000000E+00
      0.00000000000000E+00   0.00000000000000E+00  -9.28159771725627E-08   8.32975260148799E-19  -9.28159771717297E-08
     -5.32380237896843E-14
      2.80000000000000E-02
      4.20000000000000E-01   4.20000000000000E-01   0.00000000000000E+00   0.00000000000000E+00   9.28973171425092E-08
      9.54387988520873E-21   9.28973171425188E-08   5.21998605980504E-14   0.00000000000000E+00   0.00000000000000E+00
      0.00000000000000E+00   0.00000000000000E+00  -9.28973171200080E-08  -2.25092005494656E-17  -9.28973171425172E-08
     -5.38095074455029E-14
      2.90000000000000E-02
      4.35000000000000E-01   4.35000000000000E-01   0.00000000000000E+00   0.00000000000000E+00   9.29762469218788E-08
     -5.88075903277600E-21   9.29762469218729E-08   5.27707281127832E-14   0.00000000000000E+00   0.00000000000000E+00
      0.00000000000000E+00   0.00000000000000E+00  -9.29762469175958E-08  -4.25736912266953E-18  -9.29762469218532E-08
     -5.43803749603417E-14
      3.00000000000000E-02
      4.50000000000000E-01   4.50000000000000E-01   0.00000000000000E+00   0.00000000000000E+00   9.30528942459907E-08
     -2.35763656338979E-22   9.30528942459905E-08   5.33409916689087E-14   0.00000000000000E+00   0.00000000000000E+00
      0.00000000000000E+00   0.00000000000000E+00  -9.30528942574717E-08   1.14640714555020E-17  -9.30528942460076E-08
     -5.49506385165724E-14
      3.10000000000000E-02
      4.65000000000000E-01   4.65000000000000E-01   0.00000000000000E+00   0.00000000000000E+00   9.31273784233578E-08
      2.71612642567579E-20   9.31273784233850E-08   5.39106628838467E-14   0.00000000000000E+00   0.00000000000000E+00
      0.00000000000000E+00   0.00000000000000E+00  -9.31273784158457E-08  -7.51961503975341E-18  -9.31273784233653E-08
     -5.55203097316138E-14
      3.20000000000000E-02
      4.80000000000000E-01   4.80000000000000E-01   0.00000000000000E+00   0.00000000000000E+00   9.31998109388099E-08
     -2.70116969407734E-20   9.31998109387829E-08   5.44797528557785E-14   0.00000000000000E+00   0.00000000000000E+00
      0.00000000000000E+00   0.00000000000000E+00  -9.31998109315356E-08  -7.26619961067382E-18  -9.31998109388018E-08
     -5.60893997036525E-14
      3.30000000000000E-02
      4.95000000000000E-01   4.95000000000000E-01   0.00000000000000E+00   0.00000000000000E+00   9.32702960828554E-08
      1.64552737505397E-21   9.32702960828570E-08   5.50482722036360E-14   0.00000000000000E+00   0.00000000000000E+00
      0.00000000000000E+00   0.00000000000000E+00  -9.32702960989729E-08   1.61524833016679E-17  -9.32702960828204E-08
     -5.66579190516213E-14
      3.40000000000000E-02
      5.10000000000000E-01   5.10000000000000E-01   0.00000000000000E+00   0.00000000000000E+00   9.33389315988314E-08
      2.24152254073222E-20   9.33389315988538E-08   5.56162311022853E-14   0.00000000000000E+00   0.00000000000000E+00
      0.00000000000000E+00   0.00000000000000E+00  -9.33389316107746E-08   1.19401708633010E-17  -9.33389315988345E-08
     -5.72258779503799E-14
      3.50000000000000E-02
      5.25000000000000E-01   5.25000000000000E-01   0.00000000000000E+00   0.00000000000000E+00   9.34058093145905E-08
      8.16281452709534E-21   9.34058093145986E-08   5.61836393136479E-14   0.00000000000000E+00   0.00000000000000E+00
      0.00000000000000E+00   0.00000000000000E+00  -9.34058093153158E-08   7.12216148982315E-19  -9.34058093146036E-08
     -5.77932861618483E-14
      3.60000000000000E-02
      5.40000000000000E-01   5.40000000000000E-01   0.00000000000000E+00   0.00000000000000E+00   9.34710157134439E-08
     -2.23697012510606E-21   9.34710157134417E-08   5.67505062143878E-14   0.00000000000000E+00   0.00000000000000E+00
      0.00000000000000E+00   0.00000000000000E+00  -9.34710157352104E-08   2.17439840492358E-17  -9.34710157134664E-08
     -5.83601530627009E-14
      3.70000000000000E-02
      5.55000000000000E-01   5.55000000000000E-01   0.00000000000000E+00   0.00000000000000E+00   9.35346324049568E-08
      1.10997765674340E-20   9.35346324049679E-08   5.73168408206750E-14   0.00000000000000E+00   0.00000000000000E+00
      0.00000000000000E+00   0.00000000000000E+00  -9.35346324112834E-08   6.30917503439918E-18  -9.35346324049742E-08
     -5.89264876690983E-14
      3.80000000000000E-02
      5.70000000000000E-01   5.70000000000000E-01   0.00000000000000E+00   0.00000000000000E+00   9.35967364761273E-08
      1.07268835202875E-20   9.35967364761380E-08   5.78826518104551E-14   0.00000000000000E+00   0.00000000000000E+00
      0.00000000000000E+00   0.00000000000000E+00  -9.35967364621935E-08  -1.39674317400618E-17  -9.35967364761610E-08
     -5.94922986589939E-14
      3.90000000000000E-02
      5.85000000000000E-01   5.85000000000000E-01   0.00000000000000E+00   0.00000000000000E+00   9.36574007309494E-08
      3.47920326113591E-20   9.36574007309842E-08   5.84479475435725E-14   0.00000000000000E+00   0.00000000000000E+00
      0.00000000000000E+00   0.00000000000000E+00  -9.36574007061514E-08  -2.48270416665715E-17  -9.36574007309784E-08
     -6.00575943922237E-14
      4.00000000000000E-02
      6.00000000000000E-01   6.00000000000000E-01   0.00000000000000E+00   0.00000000000000E+00   9.37166938480040E-08
      6.27307684502253E-21   9.37166938480102E-08   5.90127360800511E-14   0.00000000000000E+00   0.00000000000000E+00
      0.00000000000000E+00   0.00000000000000E+00  -9.37166938460783E-08  -1.93697562480041E-18  -9.37166938480153E-08
     -6.06223829288164E-14
      4.10000000000000E-02
      6.15000000000000E-01   6.15000000000000E-01   0.00000000000000E+00   0.00000000000000E+00   9.37746805077341E-08
      2.54895952994799E-20   9.37746805077596E-08   5.95770251967745E-14   0.00000000000000E+00   0.00000000000000E+00
      0.00000000000000E+00   0.00000000000000E+00  -9.37746805073247E-08  -4.33122592492387E-19  -9.37746805077578E-08
     -6.11866720456524E-14
      4.20000000000000E-02
      6.30000000000000E-01   6.30000000000000E-01   0.00000000000000E+00   0.00000000000000E+00   9.38314215424171E-08
     -2.46343149602099E-20   9.38314215423925E-08   6.01408224027622E-14   0.00000000000000E+00   0.00000000000000E+00
      0.00000000000000E+00   0.00000000000000E+00  -9.38314215408223E-08  -1.57032393639130E-18  -9.38314215423927E-08
     -6.17504692517570E-14
      4.30000000000000E-02
      6.45000000000000E-01   6.45000000000000E-01   0.00000000000000E+00   0.00000000000000E+00   9.38869741492667E-08
      4.22178874144022E-20   9.38869741493089E-08   6.07041349532337E-14   0.00000000000000E+00   0.00000000000000E+00
      0.00000000000000E+00   0.00000000000000E+00  -9.38869741325903E-08  -1.67329319331682E-17  -9.38869741493232E-08
     -6.23137818023456E-14
      4.40000000000000E-02
      6.60000000000000E-01   6.60000000000000E-01   0.00000000000000E+00   0.00000000000000E+00   9.39413921848351E-08
     -1.11810449917075E-20   9.39413921848239E-08   6.12669698625861E-14   0.00000000000000E+00   0.00000000000000E+00
      0.00000000000000E+00   0.00000000000000E+00  -9.39413921919452E-08   7.13285151926749E-18  -9.39413921848123E-08
     -6.28766167118131E-14
      4.50000000000000E-02
      6.75000000000000E-01   6.75000000000000E-01   0.00000000000000E+00   0.00000000000000E+00   9.39947265302276E-08
      1.14516500273244E-20   9.39947265302391E-08   6.18293339164200E-14   0.00000000000000E+00   0.00000000000000E+00
      0.00000000000000E+00   0.00000000000000E+00  -9.39947265417281E-08   1.15405612575675E-17  -9.39947265301876E-08
     -6.34389807657702E-14
      4.60000000000000E-02
      6.90000000000001E-01   6.90000000000001E-01   0.00000000000000E+00   0.00000000000000E+00   9.40470255735632E-08
      1.06337594074973E-20   9.40470255735739E-08   6.23912336827170E-14   0.00000000000000E+00   0.00000000000000E+00
      0.00000000000000E+00   0.00000000000000E+00  -9.40470255743847E-08   8.22984977589730E-19  -9.40470255735617E-08
     -6.40008805321799E-14
      4.70000000000000E-02
      7.05000000000001E-01   7.05000000000001E-01   0.00000000000000E+00   0.00000000000000E+00   9.40983354142387E-08
      4.49343252101180E-22   9.40983354142392E-08   6.29526755222595E-14   0.00000000000000E+00   0.00000000000000E+00
      0.00000000000000E+00   0.00000000000000E+00  -9.40983354351588E-08   2.09038569772145E-17  -9.40983354142549E-08
     -6.45623223718420E-14
      4.80000000000000E-02
      7.20000000000001E-01   7.20000000000001E-01   0.00000000000000E+00   0.00000000000000E+00   9.41487001793161E-08
      2.96263108266451E-21   9.41487001793191E-08   6.35136655983652E-14   0.00000000000000E+00   0.00000000000000E+00
      0.00000000000000E+00   0.00000000000000E+00  -9.41487001611728E-08  -1.81517790739178E-17  -9.41487001793246E-08
     -6.51233124480685E-14
      4.90000000000000E-02
      7.35000000000001E-01   7.35000000000001E-01   0.00000000000000E+00   0.00000000000000E+00   9.41981623876563E-08
      6.45335925438839E-21   9.41981623876627E-08   6.40742098860079E-14   0.00000000000000E+00   0.00000000000000E+00
      0.00000000000000E+00   0.00000000000000E+00  -9.41981623970642E-08   9.38308113007338E-18  -9.41981623876812E-08
     -6.56838567358315E-14
      5.00000000000000E-02
      7.50000000000001E-01   7.50000000000001E-01   0.00000000000000E+00   0.00000000000000E+00   9.42467629376740E-08
      2.00071367715899E-20   9.42467629376940E-08   6.46343141803764E-14   0.00000000000000E+00   0.00000000000000E+00
      0.00000000000000E+00   0.00000000000000E+00  -9.42467629461675E-08   8.46572525730802E-18  -9.42467629377018E-08
     -6.62439610303233E-14
      5.10000000000000E-02
      7.65000000000001E-01   7.65000000000001E-01   0.00000000000000E+00   0.00000000000000E+00   9.42945410589424E-08
      2.87806838024378E-20   9.42945410589712E-08   6.51939841049268E-14   0.00000000000000E+00   0.00000000000000E+00
      0.00000000000000E+00   0.00000000000000E+00  -9.42945410640507E-08   5.09818657227506E-18  -9.42945410589525E-08
     -6.68036309549974E-14
      5.20000000000000E-02
      7.80000000000001E-01   7.80000000000001E-01   0.00000000000000E+00   0.00000000000000E+00   9.43415341776422E-08
      4.01536896895660E-20   9.43415341776824E-08   6.57532251189627E-14   0.00000000000000E+00   0.00000000000000E+00
      0.00000000000000E+00   0.00000000000000E+00  -9.43415341898430E-08   1.21628064937308E-17  -9.43415341776802E-08
     -6.73628719691599E-14
      5.30000000000000E-02
      7.95000000000001E-01   7.95000000000001E-01   0.00000000000000E+00   0.00000000000000E+00   9.43877777442665E-08
      2.25444819458977E-20   9.43877777442890E-08   6.63120425247878E-14   0.00000000000000E+00   0.00000000000000E+00
      0.00000000000000E+00   0.00000000000000E+00  -9.43877777469705E-08   2.68730168022916E-18  -9.43877777442832E-08
     -6.79216893751081E-14
      5.40000000000000E-02
      8.10000000000001E-01   8.10000000000001E-01   0.00000000000000E+00   0.00000000000000E+00   9.44333050781727E-08
     -8.86116942910931E-21   9.44333050781638E-08   6.68704414744544E-14   0.00000000000000E+00   0.00000000000000E+00
      0.00000000000000E+00   0.00000000000000E+00  -9.44333050663664E-08  -1.18100762598776E-17  -9.44333050781765E-08
     -6.84800883248984E-14
      5.50000000000000E-02
      8.25000000000001E-01   8.25000000000001E-01   0.00000000000000E+00   0.00000000000000E+00   9.44781472788363E-08
      4.70813439903217E-21   9.44781472788410E-08   6.74284269761429E-14   0.00000000000000E+00   0.00000000000000E+00
      0.00000000000000E+00   0.00000000000000E+00  -9.44781472985574E-08   1.97231346627832E-17  -9.44781472788343E-08
     -6.90380738267145E-14
      5.60000000000000E-02
      8.40000000000001E-01   8.40000000000001E-01   0.00000000000000E+00   0.00000000000000E+00   9.45223332399882E-08
      1.94359288550346E-20   9.45223332400077E-08   6.79860039001976E-14   0.00000000000000E+00   0.00000000000000E+00
      0.00000000000000E+00   0.00000000000000E+00  -9.45223332556596E-08   1.56161547098670E-17  -9.45223332400435E-08
     -6.95956507508962E-14
      5.70000000000000E-02
      8.55000000000001E-01   8.55000000000001E-01   0.00000000000000E+00   0.00000000000000E+00   9.45658897832718E-08
     -4.95894338820051E-21   9.45658897832668E-08   6.85431769848345E-14   0.00000000000000E+00   0.00000000000000E+00
      0.00000000000000E+00   0.00000000000000E+00  -9.45658897691605E-08  -1.41035882883172E-17  -9.45658897832641E-08
     -7.01528238356617E-14
      5.80000000000000E-02
      8.70000000000001E-01   8.70000000000001E-01   0.00000000000000E+00   0.00000000000000E+00   9.46088419064895E-08
      9.09658711873712E-21   9.46088419064986E-08   6.90999508415521E-14   0.00000000000000E+00   0.00000000000000E+00
      0.00000000000000E+00   0.00000000000000E+00  -9.46088419127975E-08   6.30337456338333E-18  -9.46088419064941E-08
     -7.07095976925050E-14
      5.90000000000000E-02
      8.85000000000001E-01   8.85000000000001E-01   0.00000000000000E+00   0.00000000000000E+00   9.46512131215839E-08
      1.34338620798273E-20   9.46512131215973E-08   6.96563299602588E-14   0.00000000000000E+00   0.00000000000000E+00
      0.00000000000000E+00   0.00000000000000E+00  -9.46512131166514E-08  -4.91384487574286E-18  -9.46512131215652E-08
     -7.12659768113420E-14
      6.00000000000000E-02
      9.00000000000001E-01   9.00000000000001E-01   0.00000000000000E+00   0.00000000000000E+00   9.46930258423984E-08
     -5.78652107594014E-21   9.46930258423927E-08   7.02123187141392E-14   0.00000000000000E+00   0.00000000000000E+00
      0.00000000000000E+00   0.00000000000000E+00  -9.46930258552738E-08   1.28340359435516E-17  -9.46930258424397E-08
     -7.18219655653547E-14
      6.10000000000000E-02
      9.15000000000001E-01   9.15000000000001E-01   0.00000000000000E+00   0.00000000000000E+00   9.47343017739379E-08
      1.90337298959887E-20   9.47343017739569E-08   7.07679213642711E-14   0.00000000000000E+00   0.00000000000000E+00
      0.00000000000000E+00   0.00000000000000E+00  -9.47343017640463E-08  -9.89424368636520E-18  -9.47343017739405E-08
     -7.23775682156211E-14
      6.20000000000000E-02
      9.30000000000001E-01   9.30000000000001E-01   0.00000000000000E+00   0.00000000000000E+00   9.47750622542877E-08
      3.76445703359616E-20   9.47750622543253E-08   7.13231420640143E-14   0.00000000000000E+00   0.00000000000000E+00
      0.00000000000000E+00   0.00000000000000E+00  -9.47750622476141E-08  -6.72963481231044E-18  -9.47750622543437E-08
     -7.29327889154937E-14
      6.30000000000000E-02
      9.45000000000001E-01   9.45000000000001E-01   0.00000000000000E+00   0.00000000000000E+00   9.48153285069773E-08
      4.50293732353507E-20   9.48153285070224E-08   7.18779848631815E-14   0.00000000000000E+00   0.00000000000000E+00
      0.00000000000000E+00   0.00000000000000E+00  -9.48153284992460E-08  -7.76884220275441E-18  -9.48153285070149E-08
     -7.34876317147911E-14
      6.40000000000000E-02
      9.60000000000001E-01   9.60000000000001E-01   0.00000000000000E+00   0.00000000000000E+00   9.48551217741621E-08
      3.39157411230452E-20   9.48551217741960E-08   7.24324537120070E-14   0.00000000000000E+00   0.00000000000000E+00
      0.00000000000000E+00   0.00000000000000E+00  -9.48551217690480E-08  -5.16612506924467E-18  -9.48551217742141E-08
     -7.40421005637523E-14
      6.50000000000000E-02
      9.75000000000001E-01   9.75000000000001E-01   0.00000000000000E+00   0.00000000000000E+00   9.48944633172238E-08
      2.75304022993565E-20   9.48944633172513E-08   7.29865524649251E-14   0.00000000000000E+00   0.00000000000000E+00
      0.00000000000000E+00   0.00000000000000E+00  -9.48944633011510E-08  -1.61310287931332E-17  -9.48944633172820E-08
     -7.45961993168099E-14
      6.60000000000000E-02
      9.90000000000001E-01   9.90000000000001E-01   0.00000000000000E+00   0.00000000000000E+00   9.49333742889197E-08
      6.73788734057644E-21   9.49333742889265E-08   7.35402848841641E-14   0.00000000000000E+00   0.00000000000000E+00
      0.00000000000000E+00   0.00000000000000E+00  -9.49333743042634E-08   1.53387738974289E-17  -9.49333742889246E-08
     -7.51499317361813E-14
      6.70000000000000E-02
      1.00500000000000E+00   1.00500000000000E+00   0.00000000000000E+00   0.00000000000000E+00   9.49718754975541E-08
      1.64692389921733E-20   9.49718754975706E-08   7.40936546431756E-14   0.00000000000000E+00   0.00000000000000E+00
      0.00000000000000E+00   0.00000000000000E+00  -9.49718754942505E-08  -3.28856030610070E-18  -9.49718754975391E-08
     -7.57033014953285E-14
      6.80000000000000E-02
      1.02000000000000E+00   1.02000000000000E+00   0.00000000000000E+00   0.00000000000000E+00   9.50099870968899E-08
      2.10521840710392E-20   9.50099870969109E-08   7.46466653298976E-14   0.00000000000000E+00   0.00000000000000E+00
      0.00000000000000E+00   0.00000000000000E+00  -9.50099870960934E-08  -7.80009660227521E-19  -9.50099870968734E-08
     -7.62563121821885E-14
      6.90000000000000E-02