DF-ISE text

Info {
  version   = 1.0
  type      = xyplot
  datasets  = [
    "time"
    "ntype OuterVoltage" "ntype InnerVoltage" "ntype QuasiFermiPotential" "ntype DisplacementCurrent" "ntype eCurrent"
    "ntype hCurrent" "ntype TotalCurrent" "ntype Charge" "ptype OuterVoltage" "ptype InnerVoltage"
    "ptype QuasiFermiPotential" "ptype DisplacementCurrent" "ptype eCurrent" "ptype hCurrent" "ptype TotalCurrent"
    "ptype Charge" ]
  functions = [
    Time
    OuterVoltage InnerVoltage QuasiFermiPotential DisplacementCurrent eCurrent
    hCurrent TotalCurrent Charge OuterVoltage InnerVoltage
    QuasiFermiPotential DisplacementCurrent eCurrent hCurrent TotalCurrent
    Charge ]
}

Data {
      0.00000000000000E+00
      0.00000000000000E+00   0.00000000000000E+00   0.00000000000000E+00   0.00000000000000E+00   3.16049397556684E-06
     -3.16049397556683E-06   6.08307361489423E-21  -3.58208305807420E-30   0.00000000000000E+00   0.00000000000000E+00
      0.00000000000000E+00   0.00000000000000E+00   6.72545444066782E-06  -6.72545444066782E-06  -1.10601338452622E-21
      1.07792122010972E-27
      0.00000000000000E+00
      0.00000000000000E+00   0.00000000000000E+00   0.00000000000000E+00   0.00000000000000E+00   7.73782290950641E-06
     -3.16043430975515E-06   4.57738859975126E-06  -3.80586874511303E-30   0.00000000000000E+00   0.00000000000000E+00
      0.00000000000000E+00   0.00000000000000E+00   1.24039583769373E-06  -5.81785104547320E-06  -4.57745520777947E-06
     -9.51996409186795E-29
      0.00000000000000E+00
      0.00000000000000E+00   0.00000000000000E+00   0.00000000000000E+00   0.00000000000000E+00   6.95886579496900E-06
      1.15208715869395E-17   6.95886579498052E-06  -7.21860047245514E-30   0.00000000000000E+00   0.00000000000000E+00
      0.00000000000000E+00   0.00000000000000E+00  -6.95886579491557E-06  -6.49668022712760E-17  -6.95886579498054E-06
      1.66206234589918E-28
      1.00000000000000E-03
      1.50000000000000E-02   1.50000000000000E-02   0.00000000000000E+00   0.00000000000000E+00   6.97008453281103E-06
     -3.87683219771900E-16   6.97008453242335E-06  -3.72270514519995E-30   0.00000000000000E+00   0.00000000000000E+00
      0.00000000000000E+00   0.00000000000000E+00  -6.97008453237644E-06  -4.69282013699618E-17  -6.97008453242337E-06
      5.79133165009237E-28
      2.00000000000000E-03
      3.00000000000000E-02   3.00000000000000E-02   0.00000000000000E+00   0.00000000000000E+00   6.98105562709939E-06
      1.56675474450898E-16   6.98105562725607E-06  -6.30984913522315E-30   0.00000000000000E+00   0.00000000000000E+00
      0.00000000000000E+00   0.00000000000000E+00  -6.98105562722873E-06  -2.72878333259211E-17  -6.98105562725602E-06
     -2.66123519721849E-28
      3.00000000000000E-03
      4.50000000000000E-02   4.50000000000000E-02   0.00000000000000E+00   0.00000000000000E+00   6.99180535453780E-06
      1.43872451447490E-16   6.99180535468168E-06  -5.97568267011787E-30   0.00000000000000E+00   0.00000000000000E+00
      0.00000000000000E+00   0.00000000000000E+00  -6.99180535465860E-06  -2.30919744350777E-17  -6.99180535468170E-06
      4.73046652829210E-28
      4.00000000000000E-03
      6.00000000000000E-02   6.00000000000000E-02   0.00000000000000E+00   0.00000000000000E+00   7.00235304720435E-06
      1.29203163168866E-16   7.00235304733355E-06   7.27303482876189E-31   0.00000000000000E+00   0.00000000000000E+00
      0.00000000000000E+00   0.00000000000000E+00  -7.00235304728049E-06  -5.30315223744130E-17  -7.00235304733352E-06
      3.57936134025886E-28
      5.00000000000000E-03
      7.50000000000000E-02   7.50000000000000E-02   0.00000000000000E+00   0.00000000000000E+00   7.01271326179017E-06
      1.13043163264316E-16   7.01271326190322E-06  -2.30136361941280E-30   0.00000000000000E+00   0.00000000000000E+00
      0.00000000000000E+00   0.00000000000000E+00  -7.01271326199555E-06   9.24126761611072E-17  -7.01271326190314E-06
     -3.94128932708058E-28
      6.00000000000000E-03
      9.00000000000000E-02   9.00000000000000E-02   0.00000000000000E+00   0.00000000000000E+00   7.02289772836849E-06
      9.86354574119992E-17   7.02289772846712E-06  -2.41930472474408E-32   0.00000000000000E+00   0.00000000000000E+00
      0.00000000000000E+00   0.00000000000000E+00  -7.02289772845423E-06  -1.28617216395359E-17  -7.02289772846709E-06
      2.45511043467029E-28
      7.00000000000000E-03
      1.05000000000000E-01   1.05000000000000E-01   0.00000000000000E+00   0.00000000000000E+00   7.03291670779262E-06
      8.49429884896038E-17   7.03291670787756E-06   1.44553457303459E-30   0.00000000000000E+00   0.00000000000000E+00
      0.00000000000000E+00   0.00000000000000E+00  -7.03291670792029E-06   4.27390665868580E-17  -7.03291670787755E-06
     -5.14416763622333E-28
      8.00000000000000E-03
      1.20000000000000E-01   1.20000000000000E-01   0.00000000000000E+00   0.00000000000000E+00   7.04277961083187E-06
      7.54246038195441E-17   7.04277961090730E-06   4.33962785000969E-30   0.00000000000000E+00   0.00000000000000E+00
      0.00000000000000E+00   0.00000000000000E+00  -7.04277961087846E-06  -2.88463460565284E-17  -7.04277961090730E-06
     -3.23412655603788E-28
      9.00000000000000E-03
      1.35000000000000E-01   1.35000000000000E-01   0.00000000000000E+00   0.00000000000000E+00   7.05249495012177E-06
      6.87683430884839E-17   7.05249495019054E-06   1.06600614434036E-30   0.00000000000000E+00   0.00000000000000E+00
      0.00000000000000E+00   0.00000000000000E+00  -7.05249495021143E-06   2.09744086616930E-17  -7.05249495019045E-06
      7.15388407106824E-28
      1.00000000000000E-02
      1.50000000000000E-01   1.50000000000000E-01   0.00000000000000E+00   0.00000000000000E+00   7.06207006882890E-06
      6.42657431584361E-17   7.06207006889316E-06  -1.07598577632993E-29   0.00000000000000E+00   0.00000000000000E+00
      0.00000000000000E+00   0.00000000000000E+00  -7.06207006889593E-06   2.83365921562478E-18  -7.06207006889309E-06
     -9.08182800621680E-28
      1.10000000000000E-02
      1.65000000000000E-01   1.65000000000000E-01   0.00000000000000E+00   0.00000000000000E+00   7.07151104229927E-06
      6.01357617298541E-17   7.07151104235941E-06  -3.78923602513041E-30   0.00000000000000E+00   0.00000000000000E+00
      0.00000000000000E+00   0.00000000000000E+00  -7.07151104242763E-06   6.82422522688208E-17  -7.07151104235939E-06
     -9.77302336607618E-28
      1.20000000000000E-02
      1.80000000000000E-01   1.80000000000000E-01   0.00000000000000E+00   0.00000000000000E+00   7.08082295172674E-06
      5.63944846009173E-17   7.08082295178314E-06  -1.39639244581322E-29   0.00000000000000E+00   0.00000000000000E+00
      0.00000000000000E+00   0.00000000000000E+00  -7.08082295173512E-06  -4.80554223451181E-17  -7.08082295178317E-06
     -1.10221103954615E-27
      1.30000000000000E-02
      1.95000000000000E-01   1.95000000000000E-01   0.00000000000000E+00   0.00000000000000E+00   7.09001043538436E-06
      5.42636931108398E-17   7.09001043543862E-06   4.29426588642074E-31   0.00000000000000E+00   0.00000000000000E+00
      0.00000000000000E+00   0.00000000000000E+00  -7.09001043539797E-06  -4.05390822945934E-17  -7.09001043543851E-06
     -1.28605400557946E-27
      1.40000000000000E-02
      2.10000000000000E-01   2.10000000000000E-01   0.00000000000000E+00   0.00000000000000E+00   7.09907822106170E-06
      5.21406404741803E-17   7.09907822111384E-06   1.72829081273905E-30   0.00000000000000E+00   0.00000000000000E+00
      0.00000000000000E+00   0.00000000000000E+00  -7.09907822108478E-06  -2.90782281351324E-17  -7.09907822111386E-06
     -1.78762426111340E-28
      1.50000000000000E-02
      2.25000000000000E-01   2.25000000000000E-01   0.00000000000000E+00   0.00000000000000E+00   7.10803139819219E-06
      5.06838717941742E-17   7.10803139824287E-06   1.34573825313889E-30   0.00000000000000E+00   0.00000000000000E+00
      0.00000000000000E+00   0.00000000000000E+00  -7.10803139827910E-06   3.61679278429409E-17  -7.10803139824294E-06
     -9.48028749438215E-28
      1.60000000000000E-02
      2.40000000000000E-01   2.40000000000000E-01   0.00000000000000E+00   0.00000000000000E+00   7.11687530789325E-06
      4.95943017180133E-17   7.11687530794284E-06   4.51805157345957E-30   0.00000000000000E+00   0.00000000000000E+00
      0.00000000000000E+00   0.00000000000000E+00  -7.11687530794820E-06   5.38781081145681E-18  -7.11687530794281E-06
      4.63054924316017E-29
      1.70000000000000E-02
      2.55000000000000E-01   2.55000000000000E-01   0.00000000000000E+00   0.00000000000000E+00   7.12561521171437E-06
      4.88200383442851E-17   7.12561521176319E-06   9.32037145207656E-30   0.00000000000000E+00   0.00000000000000E+00
      0.00000000000000E+00   0.00000000000000E+00  -7.12561521178138E-06   1.82787991420804E-17  -7.12561521176310E-06
     -1.44042984006538E-27
      1.80000000000000E-02
      2.70000000000000E-01   2.70000000000000E-01   0.00000000000000E+00   0.00000000000000E+00   7.13425589844406E-06
      4.95688153461110E-17   7.13425589849363E-06  -3.65919839617542E-31   0.00000000000000E+00   0.00000000000000E+00
      0.00000000000000E+00   0.00000000000000E+00  -7.13425589851287E-06   1.93010676557382E-17  -7.13425589849356E-06
      8.06112334284727E-28
      1.90000000000000E-02
      2.85000000000000E-01   2.85000000000000E-01   0.00000000000000E+00   0.00000000000000E+00   7.14280157282974E-06
      4.85242100064779E-17   7.14280157287826E-06  -6.40510925875995E-30   0.00000000000000E+00   0.00000000000000E+00
      0.00000000000000E+00   0.00000000000000E+00  -7.14280157286925E-06  -8.96569876488179E-18  -7.14280157287821E-06
     -1.30915836570076E-27
      2.00000000000000E-02
      3.00000000000000E-01   3.00000000000000E-01   0.00000000000000E+00   0.00000000000000E+00   7.15125599752784E-06
      4.83810179962824E-17   7.15125599757622E-06  -9.45040908103156E-31   0.00000000000000E+00   0.00000000000000E+00
      0.00000000000000E+00   0.00000000000000E+00  -7.15125599756503E-06  -1.11277977783616E-17  -7.15125599757616E-06
     -1.05309915363385E-27
      2.10000000000000E-02
      3.15000000000000E-01   3.15000000000000E-01   0.00000000000000E+00   0.00000000000000E+00   7.15962282013909E-06
      4.72242403255523E-17   7.15962282018631E-06  -1.32517416297857E-29   0.00000000000000E+00   0.00000000000000E+00
      0.00000000000000E+00   0.00000000000000E+00  -7.15962282025537E-06   6.91221129184913E-17  -7.15962282018625E-06
     -5.69528525252004E-28
      2.20000000000000E-02
      3.30000000000000E-01   3.30000000000000E-01   0.00000000000000E+00   0.00000000000000E+00   7.16790592528388E-06
      4.65439934899649E-17   7.16790592533043E-06   3.35980943648834E-30   0.00000000000000E+00   0.00000000000000E+00
      0.00000000000000E+00   0.00000000000000E+00  -7.16790592535845E-06   2.80232301580131E-17  -7.16790592533043E-06
      1.73948009709099E-28
      2.30000000000000E-02
      3.45000000000000E-01   3.45000000000000E-01   0.00000000000000E+00   0.00000000000000E+00   7.17610960805726E-06
      4.57829552928840E-17   7.17610960810304E-06  -2.16225359774002E-30   0.00000000000000E+00   0.00000000000000E+00
      0.00000000000000E+00   0.00000000000000E+00  -7.17610960810635E-06   3.34221691490605E-18  -7.17610960810301E-06
      5.09336223700371E-28
      2.40000000000000E-02
      3.60000000000000E-01   3.60000000000000E-01   0.00000000000000E+00   0.00000000000000E+00   7.18423850555744E-06
      4.50174844015355E-17   7.18423850560246E-06   1.12422066427951E-29   0.00000000000000E+00   0.00000000000000E+00
      0.00000000000000E+00   0.00000000000000E+00  -7.18423850560040E-06  -2.01231628680735E-18  -7.18423850560241E-06
     -8.35313342312388E-28
      2.50000000000000E-02
      3.75000000000000E-01   3.75000000000000E-01   0.00000000000000E+00   0.00000000000000E+00   7.19229734032398E-06
      4.42672622376896E-17   7.19229734036825E-06   3.80133254875413E-30   0.00000000000000E+00   0.00000000000000E+00
      0.00000000000000E+00   0.00000000000000E+00  -7.19229734040843E-06   4.02297387756527E-17  -7.19229734036820E-06
     -1.41176107907716E-27
      2.60000000000000E-02
      3.90000000000000E-01   3.90000000000000E-01   0.00000000000000E+00   0.00000000000000E+00   7.20029061727023E-06
      4.44585814914344E-17   7.20029061731468E-06   8.78510028172693E-31   0.00000000000000E+00   0.00000000000000E+00
      0.00000000000000E+00   0.00000000000000E+00  -7.20029061732161E-06   6.93003090642067E-18  -7.20029061731468E-06
      1.62577277502802E-28
      2.70000000000000E-02
      4.05000000000000E-01   4.05000000000000E-01   0.00000000000000E+00   0.00000000000000E+00   7.20822242326013E-06
      4.47293727752768E-17   7.20822242330486E-06  -3.70909655612327E-30   0.00000000000000E+00   0.00000000000000E+00
      0.00000000000000E+00   0.00000000000000E+00  -7.20822242339821E-06   9.34326035770981E-17  -7.20822242330478E-06
      5.10860385676960E-28
      2.80000000000000E-02
      4.20000000000000E-01   4.20000000000000E-01   0.00000000000000E+00   0.00000000000000E+00   7.21609641787982E-06
      4.42652905312117E-17   7.21609641792408E-06  -9.86622708059694E-30   0.00000000000000E+00   0.00000000000000E+00
      0.00000000000000E+00   0.00000000000000E+00  -7.21609641799931E-06   7.53219983962142E-17  -7.21609641792399E-06
     -4.30273345295734E-28
      2.90000000000000E-02
      4.35000000000000E-01   4.35000000000000E-01   0.00000000000000E+00   0.00000000000000E+00   7.22391602227824E-06
      4.29165147694203E-17   7.22391602232116E-06   3.19801843302108E-30   0.00000000000000E+00   0.00000000000000E+00
      0.00000000000000E+00   0.00000000000000E+00  -7.22391602236560E-06   4.44769203598483E-17  -7.22391602232112E-06
      1.70754527472437E-28
      3.00000000000000E-02
      4.50000000000000E-01   4.50000000000000E-01   0.00000000000000E+00   0.00000000000000E+00   7.23168465263496E-06
      4.19131240896831E-17   7.23168465267688E-06  -8.73066592542019E-30   0.00000000000000E+00   0.00000000000000E+00
      0.00000000000000E+00   0.00000000000000E+00  -7.23168465271214E-06   3.53478307993179E-17  -7.23168465267680E-06
      2.38446673670776E-28
      3.10000000000000E-02
      4.65000000000000E-01   4.65000000000000E-01   0.00000000000000E+00   0.00000000000000E+00   7.23940596171810E-06
      4.14637111041941E-17   7.23940596175957E-06  -1.91427486345375E-30   0.00000000000000E+00   0.00000000000000E+00
      0.00000000000000E+00   0.00000000000000E+00  -7.23940596185762E-06   9.80984160877472E-17  -7.23940596175952E-06
     -4.24249276531122E-28
      3.20000000000000E-02
      4.80000000000000E-01   4.80000000000000E-01   0.00000000000000E+00   0.00000000000000E+00   7.24708394881329E-06
      4.07161589257844E-17   7.24708394885401E-06  -5.03669002382658E-30   0.00000000000000E+00   0.00000000000000E+00
      0.00000000000000E+00   0.00000000000000E+00  -7.24708394892854E-06   7.45043623403808E-17  -7.24708394885404E-06
      3.94056353566316E-28
      3.30000000000000E-02
      4.95000000000000E-01   4.95000000000000E-01   0.00000000000000E+00   0.00000000000000E+00   7.25472286927535E-06
      4.02441542127978E-17   7.25472286931559E-06   2.51607691373384E-30   0.00000000000000E+00   0.00000000000000E+00
      0.00000000000000E+00   0.00000000000000E+00  -7.25472286932856E-06   1.29834349562111E-17  -7.25472286931557E-06
      5.06989498117369E-28
      3.40000000000000E-02
      5.10000000000000E-01   5.10000000000000E-01   0.00000000000000E+00   0.00000000000000E+00   7.26232703503514E-06
      4.03174032974708E-17   7.26232703507546E-06  -3.46565401819589E-30   0.00000000000000E+00   0.00000000000000E+00
      0.00000000000000E+00   0.00000000000000E+00  -7.26232703509481E-06   1.93790270181162E-17  -7.26232703507543E-06
      8.73417391727107E-28
      3.50000000000000E-02
      5.25000000000000E-01   5.25000000000000E-01   0.00000000000000E+00   0.00000000000000E+00   7.26990059355099E-06
      4.05312267913262E-17   7.26990059359152E-06  -9.63790519719922E-30   0.00000000000000E+00   0.00000000000000E+00
      0.00000000000000E+00   0.00000000000000E+00  -7.26990059357689E-06  -1.45569901169027E-17  -7.26990059359145E-06
     -6.37728725442539E-28
      3.60000000000000E-02
      5.40000000000000E-01   5.40000000000000E-01   0.00000000000000E+00   0.00000000000000E+00   7.27744737185275E-06
      4.08860248681520E-17   7.27744737189364E-06  -6.34462664064135E-30   0.00000000000000E+00   0.00000000000000E+00
      0.00000000000000E+00   0.00000000000000E+00  -7.27744737193356E-06   3.99441351211508E-17  -7.27744737189362E-06
     -5.11247474432919E-28
      3.70000000000000E-02
      5.55000000000000E-01   5.55000000000000E-01   0.00000000000000E+00   0.00000000000000E+00   7.28497084952248E-06
      4.09054065646155E-17   7.28497084956339E-06  -2.03221596878503E-29   0.00000000000000E+00   0.00000000000000E+00
      0.00000000000000E+00   0.00000000000000E+00  -7.28497084964225E-06   7.89226222693113E-17  -7.28497084956333E-06
      2.83058652795057E-29
      3.80000000000000E-02
      5.70000000000000E-01   5.70000000000000E-01   0.00000000000000E+00   0.00000000000000E+00   7.29247426080929E-06
      4.09529419181894E-17   7.29247426085024E-06  -4.34113991546266E-30   0.00000000000000E+00   0.00000000000000E+00
      0.00000000000000E+00   0.00000000000000E+00  -7.29247426077277E-06  -7.74493422351946E-17  -7.29247426085022E-06
     -2.85236027047327E-28
      3.90000000000000E-02
      5.85000000000000E-01   5.85000000000000E-01   0.00000000000000E+00   0.00000000000000E+00   7.29996077216083E-06
      4.04869511529812E-17   7.29996077220131E-06   3.99941312309255E-30   0.00000000000000E+00   0.00000000000000E+00
      0.00000000000000E+00   0.00000000000000E+00  -7.29996077232795E-06   1.26584864416869E-16  -7.29996077220137E-06
     -9.51270617769372E-28
      4.00000000000000E-02
      6.00000000000000E-01   6.00000000000000E-01   0.00000000000000E+00   0.00000000000000E+00   7.30743365184799E-06
      4.02395319625253E-17   7.30743365188823E-06   1.12285980537185E-29   0.00000000000000E+00   0.00000000000000E+00
      0.00000000000000E+00   0.00000000000000E+00  -7.30743365202070E-06   1.32589628179792E-16  -7.30743365188811E-06
     -4.81344868035082E-28
      4.10000000000000E-02
      6.15000000000000E-01   6.15000000000000E-01   0.00000000000000E+00   0.00000000000000E+00   7.31489636270719E-06
      3.93998053415093E-17   7.31489636274659E-06   1.22250491872224E-29   0.00000000000000E+00   0.00000000000000E+00
      0.00000000000000E+00   0.00000000000000E+00  -7.31489636278320E-06   3.66496576970546E-17  -7.31489636274655E-06
     -1.66462680890741E-27
      4.20000000000000E-02
      6.30000000000000E-01   6.30000000000000E-01   0.00000000000000E+00   0.00000000000000E+00   7.32235252214245E-06
      3.92471922358582E-17   7.32235252218170E-06  -9.20394241219825E-30   0.00000000000000E+00   0.00000000000000E+00
      0.00000000000000E+00   0.00000000000000E+00  -7.32235252227533E-06   9.36578668568540E-17  -7.32235252218167E-06
     -1.08670329626055E-27
      4.30000000000000E-02
      6.45000000000000E-01   6.45000000000000E-01   0.00000000000000E+00   0.00000000000000E+00   7.32980574413424E-06
      3.93903091797156E-17   7.32980574417363E-06   2.18191044862857E-30   0.00000000000000E+00   0.00000000000000E+00
      0.00000000000000E+00   0.00000000000000E+00  -7.32980574426498E-06   9.13367006527825E-17  -7.32980574417364E-06
     -8.66691724592319E-28
      4.40000000000000E-02
      6.60000000000000E-01   6.60000000000000E-01   0.00000000000000E+00   0.00000000000000E+00   7.33725948817026E-06
      3.96064521694140E-17   7.33725948820987E-06  -3.61534849803943E-30   0.00000000000000E+00   0.00000000000000E+00
      0.00000000000000E+00   0.00000000000000E+00  -7.33725948829856E-06   8.87101635051886E-17  -7.33725948820985E-06
     -1.48995300778089E-27
      4.50000000000000E-02
      6.75000000000000E-01   6.75000000000000E-01   0.00000000000000E+00   0.00000000000000E+00   7.34471688100746E-06
      3.97197089120716E-17   7.34471688104718E-06  -7.90356612264831E-30   0.00000000000000E+00   0.00000000000000E+00
      0.00000000000000E+00   0.00000000000000E+00  -7.34471688118022E-06   1.33101610848255E-16  -7.34471688104712E-06
     -1.09913852254573E-27
      4.60000000000000E-02
      6.90000000000001E-01   6.90000000000001E-01   0.00000000000000E+00   0.00000000000000E+00   7.35218062963254E-06
      4.01602565090252E-17   7.35218062967270E-06   3.11636689856097E-30   0.00000000000000E+00   0.00000000000000E+00
      0.00000000000000E+00   0.00000000000000E+00  -7.35218062983834E-06   1.65672785864945E-16  -7.35218062967267E-06
     -4.95570379816577E-28
      4.70000000000000E-02
      7.05000000000001E-01   7.05000000000001E-01   0.00000000000000E+00   0.00000000000000E+00   7.35965304084631E-06
      4.02488634104116E-17   7.35965304088656E-06   1.84471985261736E-30   0.00000000000000E+00   0.00000000000000E+00
      0.00000000000000E+00   0.00000000000000E+00  -7.35965304103475E-06   1.48187423335455E-16  -7.35965304088656E-06
      4.68329008615959E-28
      4.80000000000000E-02
      7.20000000000001E-01   7.20000000000001E-01   0.00000000000000E+00   0.00000000000000E+00   7.36713614079103E-06
      4.01053819357757E-17   7.36713614083114E-06   1.70545862439928E-29   0.00000000000000E+00   0.00000000000000E+00
      0.00000000000000E+00   0.00000000000000E+00  -7.36713614099132E-06   1.60218076365001E-16  -7.36713614083110E-06
      5.52907901793012E-28
      4.90000000000000E-02
      7.35000000000001E-01   7.35000000000001E-01   0.00000000000000E+00   0.00000000000000E+00   7.37463183288759E-06
      3.99343127718159E-17   7.37463183292752E-06  -4.16422825746574E-30   0.00000000000000E+00   0.00000000000000E+00
      0.00000000000000E+00   0.00000000000000E+00  -7.37463183310637E-06   1.78791122051332E-16  -7.37463183292758E-06
     -5.08731397519185E-28
      5.00000000000000E-02
      7.50000000000001E-01   7.50000000000001E-01   0.00000000000000E+00   0.00000000000000E+00   7.38214205526019E-06
      3.96240625163164E-17   7.38214205529981E-06   8.44186142390387E-30   0.00000000000000E+00   0.00000000000000E+00
      0.00000000000000E+00   0.00000000000000E+00  -7.38214205556462E-06   2.64823457578265E-16  -7.38214205529980E-06
     -8.49466274952141E-28
      5.10000000000000E-02
      7.65000000000001E-01   7.65000000000001E-01   0.00000000000000E+00   0.00000000000000E+00   7.38966887188798E-06
      3.93757760126302E-17   7.38966887192736E-06  -5.88495874293997E-30   0.00000000000000E+00   0.00000000000000E+00
      0.00000000000000E+00   0.00000000000000E+00  -7.38966887209798E-06   1.70668778473839E-16  -7.38966887192731E-06
     -4.25362156704504E-28
      5.20000000000000E-02
      7.80000000000001E-01   7.80000000000001E-01   0.00000000000000E+00   0.00000000000000E+00   7.39721447886677E-06
      3.92990447139419E-17   7.39721447890607E-06  -3.05890841134829E-30   0.00000000000000E+00   0.00000000000000E+00
      0.00000000000000E+00   0.00000000000000E+00  -7.39721447912148E-06   2.15354222320045E-16  -7.39721447890613E-06
     -1.05762325346912E-27
      5.30000000000000E-02
      7.95000000000001E-01   7.95000000000001E-01   0.00000000000000E+00   0.00000000000000E+00   7.40478114115526E-06
      3.86783897499018E-17   7.40478114119394E-06   1.86074774641879E-29   0.00000000000000E+00   0.00000000000000E+00
      0.00000000000000E+00   0.00000000000000E+00  -7.40478114144868E-06   2.54700317966659E-16  -7.40478114119398E-06
      1.13997638629941E-28
      5.40000000000000E-02
      8.10000000000001E-01   8.10000000000001E-01   0.00000000000000E+00   0.00000000000000E+00   7.41237106864194E-06
      3.88606999629821E-17   7.41237106868080E-06  -4.08560085391156E-30   0.00000000000000E+00   0.00000000000000E+00
      0.00000000000000E+00   0.00000000000000E+00  -7.41237106895220E-06   2.71434281032899E-16  -7.41237106868077E-06
     -6.69324845147697E-28
      5.50000000000000E-02
      8.25000000000001E-01   8.25000000000001E-01   0.00000000000000E+00   0.00000000000000E+00   7.41998630531760E-06
      3.89561189995406E-17   7.41998630535655E-06  -2.98330513870004E-30   0.00000000000000E+00   0.00000000000000E+00
      0.00000000000000E+00   0.00000000000000E+00  -7.41998630564998E-06   2.93451281204191E-16  -7.41998630535653E-06
     -1.82710731422122E-27
      5.60000000000000E-02
      8.40000000000001E-01   8.40000000000001E-01   0.00000000000000E+00   0.00000000000000E+00   7.42762869081155E-06
      3.90347469383687E-17   7.42762869085058E-06  -2.09269858690363E-30   0.00000000000000E+00   0.00000000000000E+00
      0.00000000000000E+00   0.00000000000000E+00  -7.42762869114176E-06   2.91183873299118E-16  -7.42762869085058E-06
      1.40464832318641E-28
      5.70000000000000E-02
      8.55000000000001E-01   8.55000000000001E-01   0.00000000000000E+00   0.00000000000000E+00   7.43529986205266E-06
      3.89158407787114E-17   7.43529986209158E-06   1.14765767880047E-30   0.00000000000000E+00   0.00000000000000E+00
      0.00000000000000E+00   0.00000000000000E+00  -7.43529986240952E-06   3.17933532285123E-16  -7.43529986209158E-06
     -1.42671238227608E-27
      5.80000000000000E-02
      8.70000000000001E-01   8.70000000000001E-01   0.00000000000000E+00   0.00000000000000E+00   7.44300133205564E-06
      3.84596675024277E-17   7.44300133209410E-06   4.21563848286656E-30   0.00000000000000E+00   0.00000000000000E+00
      0.00000000000000E+00   0.00000000000000E+00  -7.44300133244810E-06   3.53977322006654E-16  -7.44300133209412E-06
     -1.21918442298753E-27
      5.90000000000000E-02
      8.85000000000001E-01   8.85000000000001E-01   0.00000000000000E+00   0.00000000000000E+00   7.45073460882129E-06
      3.83335020498432E-17   7.45073460885962E-06   1.64739531100542E-29   0.00000000000000E+00   0.00000000000000E+00
      0.00000000000000E+00   0.00000000000000E+00  -7.45073460917289E-06   3.13274053969291E-16  -7.45073460885962E-06
     -1.76585051859070E-27
      6.00000000000000E-02
      9.00000000000001E-01   9.00000000000001E-01   0.00000000000000E+00   0.00000000000000E+00   7.45850130162343E-06
      3.80825369199914E-17   7.45850130166151E-06  -2.16043911919646E-29   0.00000000000000E+00   0.00000000000000E+00
      0.00000000000000E+00   0.00000000000000E+00  -7.45850130193385E-06   2.72276987625524E-16  -7.45850130166158E-06
      1.54109710966198E-28
      6.10000000000000E-02
      9.15000000000001E-01   9.15000000000001E-01   0.00000000000000E+00   0.00000000000000E+00   7.46630321583351E-06
      3.78939794594344E-17   7.46630321587140E-06   2.68089204810703E-30   0.00000000000000E+00   0.00000000000000E+00
      0.00000000000000E+00   0.00000000000000E+00  -7.46630321622918E-06   3.57769293755912E-16  -7.46630321587142E-06
      1.59238636982655E-28
      6.20000000000000E-02
      9.30000000000001E-01   9.30000000000001E-01   0.00000000000000E+00   0.00000000000000E+00   7.47414236224841E-06
      3.76772218978456E-17   7.47414236228608E-06   1.52718610749470E-31   0.00000000000000E+00   0.00000000000000E+00
      0.00000000000000E+00   0.00000000000000E+00  -7.47414236266966E-06   3.83548072267128E-16  -7.47414236228611E-06
     -1.98866848373963E-28
      6.30000000000000E-02
      9.45000000000001E-01   9.45000000000001E-01   0.00000000000000E+00   0.00000000000000E+00   7.48202090622712E-06
      3.76315367404901E-17   7.48202090626475E-06  -6.12688921541438E-30   0.00000000000000E+00   0.00000000000000E+00
      0.00000000000000E+00   0.00000000000000E+00  -7.48202090665308E-06   3.88301824182805E-16  -7.48202090626478E-06
      8.40611619659577E-28
      6.40000000000000E-02
      9.60000000000001E-01   9.60000000000001E-01   0.00000000000000E+00   0.00000000000000E+00   7.48994107334643E-06
      3.74053597035825E-17   7.48994107338384E-06  -4.75242171866915E-30   0.00000000000000E+00   0.00000000000000E+00
      0.00000000000000E+00   0.00000000000000E+00  -7.48994107385178E-06   4.67892752339488E-16  -7.48994107338388E-06
      8.80626919806845E-29
      6.50000000000000E-02
      9.75000000000001E-01   9.75000000000001E-01   0.00000000000000E+00   0.00000000000000E+00   7.49790502977578E-06
      3.74431753164852E-17   7.49790502981322E-06  -3.93137017770913E-30   0.00000000000000E+00   0.00000000000000E+00
      0.00000000000000E+00   0.00000000000000E+00  -7.49790503025136E-06   4.38125291550065E-16  -7.49790502981324E-06
     -2.38833762426735E-28
      6.60000000000000E-02
      9.90000000000001E-01   9.90000000000001E-01   0.00000000000000E+00   0.00000000000000E+00   7.50591477968938E-06
      3.75567004618049E-17   7.50591477972694E-06  -7.12334034891835E-30   0.00000000000000E+00   0.00000000000000E+00
      0.00000000000000E+00   0.00000000000000E+00  -7.50591478018593E-06   4.58930708063168E-16  -7.50591477972700E-06
      2.33849994693763E-28
      6.70000000000000E-02
      1.00500000000000E+00   1.00500000000000E+00   0.00000000000000E+00   0.00000000000000E+00   7.51397213276991E-06
      3.75929920660303E-17   7.51397213280750E-06  -9.79062380794869E-30   0.00000000000000E+00   0.00000000000000E+00
      0.00000000000000E+00   0.00000000000000E+00  -7.51397213334343E-06   5.35971415075880E-16  -7.51397213280745E-06
     -7.46065191016579E-28
      6.80000000000000E-02
      1.02000000000000E+00   1.02000000000000E+00   0.00000000000000E+00   0.00000000000000E+00   7.52207871268496E-06
      3.73295729446450E-17   7.52207871272229E-06  -6.67123277848180E-30   0.00000000000000E+00   0.00000000000000E+00
      0.00000000000000E+00   0.00000000000000E+00  -7.52207871320006E-06   4.77853987360931E-16  -7.52207871272221E-06
      4.10991486639524E-28
      6.90000000000000E-02