DF-ISE text

Info {
  version   = 1.0
  type      = xyplot
  datasets  = [
    "time"
    "ntype OuterVoltage" "ntype InnerVoltage" "ntype QuasiFermiPotential" "ntype DisplacementCurrent" "ntype eCurrent"
    "ntype hCurrent" "ntype TotalCurrent" "ntype Charge" "ptype OuterVoltage" "ptype InnerVoltage"
    "ptype QuasiFermiPotential" "ptype DisplacementCurrent" "ptype eCurrent" "ptype hCurrent" "ptype TotalCurrent"
    "ptype Charge" ]
  functions = [
    Time
    OuterVoltage InnerVoltage QuasiFermiPotential DisplacementCurrent eCurrent
    hCurrent TotalCurrent Charge OuterVoltage InnerVoltage
    QuasiFermiPotential DisplacementCurrent eCurrent hCurrent TotalCurrent
    Charge ]
}

Data {
      0.00000000000000E+00
      0.00000000000000E+00   0.00000000000000E+00   0.00000000000000E+00   0.00000000000000E+00   2.38307460645426E-08
     -2.38307460645348E-08   7.83714171691628E-21   9.61368062516040E-14   0.00000000000000E+00   0.00000000000000E+00
      0.00000000000000E+00   0.00000000000000E+00   7.50287369036230E-08  -7.50287369036313E-08  -8.34694476134634E-21
     -9.82202150079836E-14
      0.00000000000000E+00
      0.00000000000000E+00   0.00000000000000E+00   0.00000000000000E+00   0.00000000000000E+00   7.58930044779955E-08
     -2.38303613986040E-08   5.20626430793914E-08   9.61368011263613E-14   0.00000000000000E+00   0.00000000000000E+00
      0.00000000000000E+00   0.00000000000000E+00   1.29084304672843E-08  -6.49710735920690E-08  -5.20626431247848E-08
     -9.82202098829350E-14
      0.00000000000000E+00
      0.00000000000000E+00   0.00000000000000E+00   0.00000000000000E+00   0.00000000000000E+00   7.02399754384412E-08
     -1.45998639825161E-19   7.02399754382952E-08   9.61332505024148E-14   0.00000000000000E+00   0.00000000000000E+00
      0.00000000000000E+00   0.00000000000000E+00  -7.02399753910778E-08  -4.72283128502165E-17  -7.02399754383061E-08
     -9.82166581938044E-14
      1.00000000000000E-03
      2.00000000000000E-03   2.00000000000000E-03   0.00000000000000E+00   0.00000000000000E+00   7.03385689823988E-08
     -6.46122278239570E-19   7.03385689817527E-08   9.63479342473963E-14   0.00000000000000E+00   0.00000000000000E+00
      0.00000000000000E+00   0.00000000000000E+00  -7.03385689817490E-08   1.47343005493519E-20  -7.03385689817343E-08
     -9.84313419389294E-14
      2.00000000000000E-03
      4.00000000000000E-03   4.00000000000000E-03   0.00000000000000E+00   0.00000000000000E+00   7.04346025029171E-08
     -3.68021000470382E-19   7.04346025025490E-08   9.65622756533394E-14   0.00000000000000E+00   0.00000000000000E+00
      0.00000000000000E+00   0.00000000000000E+00  -7.04346025113650E-08   8.81063833017288E-18  -7.04346025025543E-08
     -9.86456833450149E-14
      3.00000000000000E-03
      6.00000000000000E-03   6.00000000000000E-03   0.00000000000000E+00   0.00000000000000E+00   7.05281909668064E-08
     -3.51371614080243E-19   7.05281909664551E-08   9.67762764220876E-14   0.00000000000000E+00   0.00000000000000E+00
      0.00000000000000E+00   0.00000000000000E+00  -7.05281909931482E-08   2.67153397460375E-17  -7.05281909664329E-08
     -9.88596841139081E-14
      4.00000000000000E-03
      8.00000000000000E-03   8.00000000000000E-03   0.00000000000000E+00   0.00000000000000E+00   7.06194444408194E-08
     -3.36373716662265E-19   7.06194444404830E-08   9.69899382406409E-14   0.00000000000000E+00   0.00000000000000E+00
      0.00000000000000E+00   0.00000000000000E+00  -7.06194444489768E-08   8.49880309599800E-18  -7.06194444404780E-08
     -9.90733459326020E-14
      5.00000000000000E-03
      1.00000000000000E-02   1.00000000000000E-02   0.00000000000000E+00   0.00000000000000E+00   7.07084683046562E-08
     -3.20413217499751E-19   7.07084683043358E-08   9.72032627813320E-14   0.00000000000000E+00   0.00000000000000E+00
      0.00000000000000E+00   0.00000000000000E+00  -7.07084683032903E-08  -1.04517425930987E-18  -7.07084683043355E-08
     -9.92866704734423E-14
      6.00000000000000E-03
      1.20000000000000E-02   1.20000000000000E-02   0.00000000000000E+00   0.00000000000000E+00   7.07953634542961E-08
     -3.05555288931077E-19   7.07953634539905E-08   9.74162517019913E-14   0.00000000000000E+00   0.00000000000000E+00
      0.00000000000000E+00   0.00000000000000E+00  -7.07953634692662E-08   1.52971580517221E-17  -7.07953634539690E-08
     -9.94996593942451E-14
      7.00000000000000E-03
      1.40000000000000E-02   1.40000000000000E-02   0.00000000000000E+00   0.00000000000000E+00   7.08802264955605E-08
     -2.90799298188114E-19   7.08802264952697E-08   9.76289066461110E-14   0.00000000000000E+00   0.00000000000000E+00
      0.00000000000000E+00   0.00000000000000E+00  -7.08802264869309E-08  -8.33126663255288E-18  -7.08802264952622E-08
     -9.97123143385085E-14
      8.00000000000000E-03
      1.60000000000000E-02   1.60000000000000E-02   0.00000000000000E+00   0.00000000000000E+00   7.09631499282931E-08
     -2.77236285047367E-19   7.09631499280159E-08   9.78412292430141E-14   0.00000000000000E+00   0.00000000000000E+00
      0.00000000000000E+00   0.00000000000000E+00  -7.09631499082018E-08  -1.98184849132209E-17  -7.09631499280202E-08
     -9.99246369355537E-14
      9.00000000000000E-03
      1.80000000000000E-02   1.80000000000000E-02   0.00000000000000E+00   0.00000000000000E+00   7.10442223214836E-08
     -2.63794550115308E-19   7.10442223212199E-08   9.80532211080110E-14   0.00000000000000E+00   0.00000000000000E+00
      0.00000000000000E+00   0.00000000000000E+00  -7.10442223193862E-08  -1.79765449783011E-18  -7.10442223211839E-08
     -1.00136628800700E-13
      1.00000000000000E-02
      2.00000000000000E-02   2.00000000000000E-02   0.00000000000000E+00   0.00000000000000E+00   7.11235284796672E-08
     -2.51847657179166E-19   7.11235284794154E-08   9.82648838425648E-14   0.00000000000000E+00   0.00000000000000E+00
      0.00000000000000E+00   0.00000000000000E+00  -7.11235284743919E-08  -5.04242713140958E-18  -7.11235284794343E-08
     -1.00348291535401E-13
      1.10000000000000E-02
      2.20000000000000E-02   2.20000000000000E-02   0.00000000000000E+00   0.00000000000000E+00   7.12011496017854E-08
     -2.39078308550252E-19   7.12011496015463E-08   9.84762190344462E-14   0.00000000000000E+00   0.00000000000000E+00
      0.00000000000000E+00   0.00000000000000E+00  -7.12011496016114E-08   6.85284811546671E-20  -7.12011496015429E-08
     -1.00559626727431E-13
      1.20000000000000E-02
      2.40000000000000E-02   2.40000000000000E-02   0.00000000000000E+00   0.00000000000000E+00   7.12771634317726E-08
     -2.27482656208065E-19   7.12771634315451E-08   9.86872282578869E-14   0.00000000000000E+00   0.00000000000000E+00
      0.00000000000000E+00   0.00000000000000E+00  -7.12771634020099E-08  -2.95528911977704E-17  -7.12771634315628E-08
     -1.00770635951016E-13
      1.30000000000000E-02
      2.60000000000000E-02   2.60000000000000E-02   0.00000000000000E+00   0.00000000000000E+00   7.13516443938635E-08
     -2.16513621304601E-19   7.13516443936470E-08   9.88979130737421E-14   0.00000000000000E+00   0.00000000000000E+00
      0.00000000000000E+00   0.00000000000000E+00  -7.13516444056026E-08   1.19679627208926E-17  -7.13516443936346E-08
     -1.00981320767018E-13
      1.40000000000000E-02
      2.80000000000000E-02   2.80000000000000E-02   0.00000000000000E+00   0.00000000000000E+00   7.14246637354826E-08
     -2.05503787643857E-19   7.14246637352771E-08   9.91082750296338E-14   0.00000000000000E+00   0.00000000000000E+00
      0.00000000000000E+00   0.00000000000000E+00  -7.14246637083329E-08  -2.69510521415297E-17  -7.14246637352840E-08
     -1.01191682723056E-13
      1.50000000000000E-02
      3.00000000000000E-02   3.00000000000000E-02   0.00000000000000E+00   0.00000000000000E+00   7.14962896519796E-08
     -1.96072849013418E-19   7.14962896517835E-08   9.93183156601070E-14   0.00000000000000E+00   0.00000000000000E+00
      0.00000000000000E+00   0.00000000000000E+00  -7.14962896363616E-08  -1.53988541690582E-17  -7.14962896517605E-08
     -1.01401723353680E-13
      1.60000000000000E-02
      3.20000000000000E-02   3.20000000000000E-02   0.00000000000000E+00   0.00000000000000E+00   7.15665874074489E-08
     -1.85965043389014E-19   7.15665874072630E-08   9.95280364867743E-14   0.00000000000000E+00   0.00000000000000E+00
      0.00000000000000E+00   0.00000000000000E+00  -7.15665873994177E-08  -7.83841520165578E-18  -7.15665874072562E-08
     -1.01611444180494E-13
      1.70000000000000E-02
      3.40000000000000E-02   3.40000000000000E-02   0.00000000000000E+00   0.00000000000000E+00   7.16356194490889E-08
     -1.76600100018282E-19   7.16356194489123E-08   9.97374390184650E-14   0.00000000000000E+00   0.00000000000000E+00
      0.00000000000000E+00   0.00000000000000E+00  -7.16356194540330E-08   5.10563672647843E-18  -7.16356194489274E-08
     -1.01820846712334E-13
      1.80000000000000E-02
      3.60000000000000E-02   3.60000000000000E-02   0.00000000000000E+00   0.00000000000000E+00   7.17034455154422E-08
     -1.67890042098039E-19   7.17034455152743E-08   9.99465247513677E-14   0.00000000000000E+00   0.00000000000000E+00
      0.00000000000000E+00   0.00000000000000E+00  -7.17034454807295E-08  -3.45136775776903E-17  -7.17034455152432E-08
     -1.02029932445386E-13
      1.90000000000000E-02
      3.80000000000000E-02   3.80000000000000E-02   0.00000000000000E+00   0.00000000000000E+00   7.17701227388416E-08
     -1.59582140945779E-19   7.17701227386820E-08   1.00155295169176E-13   0.00000000000000E+00   0.00000000000000E+00
      0.00000000000000E+00   0.00000000000000E+00  -7.17701227688158E-08   3.01448642959809E-17  -7.17701227386709E-08
     -1.02238702863345E-13
      2.00000000000000E-02
      4.00000000000000E-02   4.00000000000000E-02   0.00000000000000E+00   0.00000000000000E+00   7.18357057423940E-08
     -1.51757918132151E-19   7.18357057422423E-08   1.00363751743226E-13   0.00000000000000E+00   0.00000000000000E+00
      0.00000000000000E+00   0.00000000000000E+00  -7.18357057474443E-08   5.21647020926225E-18  -7.18357057422278E-08
     -1.02447159437542E-13
      2.10000000000000E-02
      4.20000000000000E-02   4.20000000000000E-02   0.00000000000000E+00   0.00000000000000E+00   7.19002467318461E-08
     -1.44092890634932E-19   7.19002467317020E-08   1.00571895932636E-13   0.00000000000000E+00   0.00000000000000E+00
      0.00000000000000E+00   0.00000000000000E+00  -7.19002467384075E-08   6.72779602964761E-18  -7.19002467316797E-08
     -1.02655303627106E-13
      2.20000000000000E-02
      4.40000000000000E-02   4.40000000000000E-02   0.00000000000000E+00   0.00000000000000E+00   7.19637955826507E-08
     -1.36940931770368E-19   7.19637955825137E-08   1.00779729184448E-13   0.00000000000000E+00   0.00000000000000E+00
      0.00000000000000E+00   0.00000000000000E+00  -7.19637955503806E-08  -3.21562292401319E-17  -7.19637955825368E-08
     -1.02863136879066E-13
      2.30000000000000E-02
      4.60000000000000E-02   4.60000000000000E-02   0.00000000000000E+00   0.00000000000000E+00   7.20263999225813E-08
     -1.30247948377437E-19   7.20263999224510E-08   1.00987252933758E-13   0.00000000000000E+00   0.00000000000000E+00
      0.00000000000000E+00   0.00000000000000E+00  -7.20263999182477E-08  -4.20540250937237E-18  -7.20263999224531E-08
     -1.03070660628527E-13
      2.40000000000000E-02
      4.80000000000000E-02   4.80000000000000E-02   0.00000000000000E+00   0.00000000000000E+00   7.20881052102163E-08
     -1.23753149061621E-19   7.20881052100926E-08   1.01194468603851E-13   0.00000000000000E+00   0.00000000000000E+00
      0.00000000000000E+00   0.00000000000000E+00  -7.20881051759624E-08  -3.41390169721236E-17  -7.20881052101014E-08
     -1.03277876298771E-13
      2.50000000000000E-02
      5.00000000000000E-02   5.00000000000000E-02   0.00000000000000E+00   0.00000000000000E+00   7.21489548096226E-08
     -1.17823140401779E-19   7.21489548095048E-08   1.01401377606337E-13   0.00000000000000E+00   0.00000000000000E+00
      0.00000000000000E+00   0.00000000000000E+00  -7.21489548200194E-08   1.05224045275836E-17  -7.21489548094970E-08
     -1.03484785301411E-13
      2.60000000000000E-02
      5.20000000000000E-02   5.20000000000000E-02   0.00000000000000E+00   0.00000000000000E+00   7.22089900615634E-08
     -1.12460441204332E-19   7.22089900614509E-08   1.01607981341275E-13   0.00000000000000E+00   0.00000000000000E+00
      0.00000000000000E+00   0.00000000000000E+00  -7.22089900431629E-08  -1.82984668562430E-17  -7.22089900614613E-08
     -1.03691389036499E-13
      2.70000000000000E-02
      5.40000000000000E-02   5.40000000000000E-02   0.00000000000000E+00   0.00000000000000E+00   7.22682503515410E-08
     -1.06768212933609E-19   7.22682503514343E-08   1.01814281197309E-13   0.00000000000000E+00   0.00000000000000E+00
      0.00000000000000E+00   0.00000000000000E+00  -7.22682503475295E-08  -3.89454685364671E-18  -7.22682503514241E-08
     -1.03897688892683E-13
      2.80000000000000E-02
      5.60000000000000E-02   5.60000000000000E-02   0.00000000000000E+00   0.00000000000000E+00   7.23267731749900E-08
     -1.01727954710966E-19   7.23267731748883E-08   1.02020278551784E-13   0.00000000000000E+00   0.00000000000000E+00
      0.00000000000000E+00   0.00000000000000E+00  -7.23267732013834E-08   2.64900322959516E-17  -7.23267731748934E-08
     -1.04103686247313E-13
      2.90000000000000E-02
      5.80000000000000E-02   5.80000000000000E-02   0.00000000000000E+00   0.00000000000000E+00   7.23845941999162E-08
     -9.67457007608247E-20   7.23845941998195E-08   1.02225974770885E-13   0.00000000000000E+00   0.00000000000000E+00
      0.00000000000000E+00   0.00000000000000E+00  -7.23845941748241E-08  -2.50031896591968E-17  -7.23845941998273E-08
     -1.04309382466567E-13
      3.00000000000000E-02
      6.00000000000000E-02   6.00000000000000E-02   0.00000000000000E+00   0.00000000000000E+00   7.24417473272697E-08
     -9.24096240259049E-20   7.24417473271773E-08   1.02431371209751E-13   0.00000000000000E+00   0.00000000000000E+00
      0.00000000000000E+00   0.00000000000000E+00  -7.24417472760620E-08  -5.11140353421774E-17  -7.24417473271761E-08
     -1.04514778905587E-13
      3.10000000000000E-02
      6.20000000000000E-02   6.20000000000000E-02   0.00000000000000E+00   0.00000000000000E+00   7.24982647493380E-08
     -8.81744345592452E-20   7.24982647492499E-08   1.02636469212596E-13   0.00000000000000E+00   0.00000000000000E+00
      0.00000000000000E+00   0.00000000000000E+00  -7.24982647418762E-08  -7.39243610216340E-18  -7.24982647492686E-08
     -1.04719876908585E-13
      3.20000000000000E-02
      6.40000000000000E-02   6.40000000000000E-02   0.00000000000000E+00   0.00000000000000E+00   7.25541770064122E-08
     -8.42717781695006E-20   7.25541770063279E-08   1.02841270112836E-13   0.00000000000000E+00   0.00000000000000E+00
      0.00000000000000E+00   0.00000000000000E+00  -7.25541770202007E-08   1.38611474348856E-17  -7.25541770063396E-08
     -1.04924677808977E-13
      3.30000000000000E-02
      6.60000000000000E-02   6.60000000000000E-02   0.00000000000000E+00   0.00000000000000E+00   7.26095130419821E-08
     -8.05297009630104E-20   7.26095130419016E-08   1.03045775233203E-13   0.00000000000000E+00   0.00000000000000E+00
      0.00000000000000E+00   0.00000000000000E+00  -7.26095130144338E-08  -2.74652773772116E-17  -7.26095130418991E-08
     -1.05129182929499E-13
      3.40000000000000E-02
      6.80000000000000E-02   6.80000000000000E-02   0.00000000000000E+00   0.00000000000000E+00   7.26643002566968E-08
     -7.66927065235808E-20   7.26643002566201E-08   1.03249985885863E-13   0.00000000000000E+00   0.00000000000000E+00
      0.00000000000000E+00   0.00000000000000E+00  -7.26643002839813E-08   2.73322100971744E-17  -7.26643002566491E-08
     -1.05333393582317E-13
      3.50000000000000E-02
      7.00000000000000E-02   7.00000000000000E-02   0.00000000000000E+00   0.00000000000000E+00   7.27185645613006E-08
     -7.37956698855316E-20   7.27185645612269E-08   1.03453903372530E-13   0.00000000000000E+00   0.00000000000000E+00
      0.00000000000000E+00   0.00000000000000E+00  -7.27185646019174E-08   4.06769709891684E-17  -7.27185645612404E-08
     -1.05537311069136E-13
      3.60000000000000E-02
      7.20000000000001E-02   7.20000000000001E-02   0.00000000000000E+00   0.00000000000000E+00   7.27723304287439E-08
     -7.05727621393103E-20   7.27723304286733E-08   1.03657528984581E-13   0.00000000000000E+00   0.00000000000000E+00
      0.00000000000000E+00   0.00000000000000E+00  -7.27723304599665E-08   3.12981329811649E-17  -7.27723304286683E-08
     -1.05740936681344E-13
      3.70000000000000E-02
      7.40000000000001E-02   7.40000000000001E-02   0.00000000000000E+00   0.00000000000000E+00   7.28256209456538E-08
     -6.76826153017407E-20   7.28256209455861E-08   1.03860864003170E-13   0.00000000000000E+00   0.00000000000000E+00
      0.00000000000000E+00   0.00000000000000E+00  -7.28256209445024E-08  -1.07429529443236E-18  -7.28256209455768E-08
     -1.05944271700086E-13
      3.80000000000000E-02
      7.60000000000001E-02   7.60000000000001E-02   0.00000000000000E+00   0.00000000000000E+00   7.28784578633102E-08
     -6.48825379440481E-20   7.28784578632453E-08   1.04063909699332E-13   0.00000000000000E+00   0.00000000000000E+00
      0.00000000000000E+00   0.00000000000000E+00  -7.28784578706577E-08   7.41280421558496E-18  -7.28784578632449E-08
     -1.06147317396405E-13
      3.90000000000000E-02
      7.80000000000001E-02   7.80000000000001E-02   0.00000000000000E+00   0.00000000000000E+00   7.29308616482803E-08
     -6.24514256455985E-20   7.29308616482179E-08   1.04266667334103E-13   0.00000000000000E+00   0.00000000000000E+00
      0.00000000000000E+00   0.00000000000000E+00  -7.29308616606718E-08   1.24702159341286E-17  -7.29308616482015E-08
     -1.06350075031329E-13
      4.00000000000000E-02
      8.00000000000001E-02   8.00000000000001E-02   0.00000000000000E+00   0.00000000000000E+00   7.29828515328107E-08
     -5.99699414378247E-20   7.29828515327508E-08   1.04469138158615E-13   0.00000000000000E+00   0.00000000000000E+00
      0.00000000000000E+00   0.00000000000000E+00  -7.29828515527612E-08   2.00103585829291E-17  -7.29828515327508E-08
     -1.06552545855999E-13
      4.10000000000000E-02
      8.20000000000001E-02   8.20000000000001E-02   0.00000000000000E+00   0.00000000000000E+00   7.30344455650789E-08
     -5.76950035757216E-20   7.30344455650212E-08   1.04671323414212E-13   0.00000000000000E+00   0.00000000000000E+00
      0.00000000000000E+00   0.00000000000000E+00  -7.30344456030270E-08   3.80040080479699E-17  -7.30344455650229E-08
     -1.06754731111754E-13
      4.20000000000000E-02
      8.40000000000001E-02   8.40000000000001E-02   0.00000000000000E+00   0.00000000000000E+00   7.30856606593759E-08
     -5.57854107797130E-20   7.30856606593201E-08   1.04873224332549E-13   0.00000000000000E+00   0.00000000000000E+00
      0.00000000000000E+00   0.00000000000000E+00  -7.30856606821898E-08   2.28882735768744E-17  -7.30856606593016E-08
     -1.06956632030249E-13
      4.30000000000000E-02
      8.60000000000001E-02   8.60000000000001E-02   0.00000000000000E+00   0.00000000000000E+00   7.31365126462602E-08
     -5.40069393672353E-20   7.31365126462062E-08   1.05074842135699E-13   0.00000000000000E+00   0.00000000000000E+00
      0.00000000000000E+00   0.00000000000000E+00  -7.31365126797104E-08   3.35126978696743E-17  -7.31365126461977E-08
     -1.07158249833552E-13
      4.40000000000000E-02
      8.80000000000001E-02   8.80000000000001E-02   0.00000000000000E+00   0.00000000000000E+00   7.31870163227166E-08
     -5.18956901696809E-20   7.31870163226647E-08   1.05276178036249E-13   0.00000000000000E+00   0.00000000000000E+00
      0.00000000000000E+00   0.00000000000000E+00  -7.31870163274358E-08   4.76248450348603E-18  -7.31870163226733E-08
     -1.07359585734261E-13
      4.50000000000000E-02
      9.00000000000001E-02   9.00000000000001E-02   0.00000000000000E+00   0.00000000000000E+00   7.32371855023139E-08
     -4.99920083415057E-20   7.32371855022639E-08   1.05477233237407E-13   0.00000000000000E+00   0.00000000000000E+00
      0.00000000000000E+00   0.00000000000000E+00  -7.32371855097637E-08   7.47803790297758E-18  -7.32371855022857E-08
     -1.07560640935576E-13
      4.60000000000000E-02
      9.20000000000001E-02   9.20000000000001E-02   0.00000000000000E+00   0.00000000000000E+00   7.32870330653575E-08
     -4.87919131070743E-20   7.32870330653088E-08   1.05678008933096E-13   0.00000000000000E+00   0.00000000000000E+00
      0.00000000000000E+00   0.00000000000000E+00  -7.32870330661110E-08   8.07718598211363E-19  -7.32870330653033E-08
     -1.07761416631424E-13
      4.70000000000000E-02
      9.40000000000001E-02   9.40000000000001E-02   0.00000000000000E+00   0.00000000000000E+00   7.33365710089809E-08
     -4.72876667233619E-20   7.33365710089336E-08   1.05878506308055E-13   0.00000000000000E+00   0.00000000000000E+00
      0.00000000000000E+00   0.00000000000000E+00  -7.33365709787571E-08  -3.01899668820614E-17  -7.33365710089471E-08
     -1.07961914006541E-13
      4.80000000000000E-02
      9.60000000000001E-02   9.60000000000001E-02   0.00000000000000E+00   0.00000000000000E+00   7.33858104971340E-08
     -4.57909050341081E-20   7.33858104970882E-08   1.06078726537932E-13   0.00000000000000E+00   0.00000000000000E+00
      0.00000000000000E+00   0.00000000000000E+00  -7.33858104952789E-08  -1.77707077996257E-18  -7.33858104970560E-08
     -1.08162134236573E-13
      4.90000000000000E-02
      9.80000000000001E-02   9.80000000000001E-02   0.00000000000000E+00   0.00000000000000E+00   7.34347619103794E-08
     -4.44577602845970E-20   7.34347619103349E-08   1.06278670789380E-13   0.00000000000000E+00   0.00000000000000E+00
      0.00000000000000E+00   0.00000000000000E+00  -7.34347618840247E-08  -2.63249615163525E-17  -7.34347619103497E-08
     -1.08362078488178E-13
      5.00000000000000E-02
      1.00000000000000E-01   1.00000000000000E-01   0.00000000000000E+00   0.00000000000000E+00   7.34834348954124E-08
     -4.33635393019940E-20   7.34834348953690E-08   1.06478340220155E-13   0.00000000000000E+00   0.00000000000000E+00
      0.00000000000000E+00   0.00000000000000E+00  -7.34834348795259E-08  -1.58315859819613E-17  -7.34834348953574E-08
     -1.08561747919113E-13
      5.10000000000000E-02
      1.02000000000000E-01   1.02000000000000E-01   0.00000000000000E+00   0.00000000000000E+00   7.35318384141932E-08
     -4.18880165935206E-20   7.35318384141513E-08   1.06677735979199E-13   0.00000000000000E+00   0.00000000000000E+00
      0.00000000000000E+00   0.00000000000000E+00  -7.35318384431814E-08   2.90346901279568E-17  -7.35318384141467E-08
     -1.08761143678317E-13
      5.20000000000000E-02
      1.04000000000000E-01   1.04000000000000E-01   0.00000000000000E+00   0.00000000000000E+00   7.35799807925692E-08
     -4.09690741602903E-20   7.35799807925282E-08   1.06876859206740E-13   0.00000000000000E+00   0.00000000000000E+00
      0.00000000000000E+00   0.00000000000000E+00  -7.35799807779075E-08  -1.45983865191199E-17  -7.35799807925058E-08
     -1.08960266906016E-13
      5.30000000000000E-02
      1.06000000000000E-01   1.06000000000000E-01   0.00000000000000E+00   0.00000000000000E+00   7.36278697682541E-08
     -3.96847318125844E-20   7.36278697682144E-08   1.07075711034377E-13   0.00000000000000E+00   0.00000000000000E+00
      0.00000000000000E+00   0.00000000000000E+00  -7.36278697788302E-08   1.06019023928286E-17  -7.36278697682283E-08
     -1.09159118733813E-13
      5.40000000000000E-02
      1.08000000000000E-01   1.08000000000000E-01   0.00000000000000E+00   0.00000000000000E+00   7.36755125380273E-08
     -3.87157001501476E-20   7.36755125379886E-08   1.07274292585172E-13   0.00000000000000E+00   0.00000000000000E+00
      0.00000000000000E+00   0.00000000000000E+00  -7.36755125090983E-08  -2.88949059125833E-17  -7.36755125379933E-08
     -1.09357700284768E-13
      5.50000000000000E-02
      1.10000000000000E-01   1.10000000000000E-01   0.00000000000000E+00   0.00000000000000E+00   7.37229158040014E-08
     -3.76256898355658E-20   7.37229158039638E-08   1.07472604973735E-13   0.00000000000000E+00   0.00000000000000E+00
      0.00000000000000E+00   0.00000000000000E+00  -7.37229157980087E-08  -5.95664040278415E-18  -7.37229158039653E-08
     -1.09556012673490E-13
      5.60000000000000E-02
      1.12000000000000E-01   1.12000000000000E-01   0.00000000000000E+00   0.00000000000000E+00   7.37700858188032E-08
     -3.67642580394070E-20   7.37700858187664E-08   1.07670649306309E-13   0.00000000000000E+00   0.00000000000000E+00
      0.00000000000000E+00   0.00000000000000E+00  -7.37700858153185E-08  -3.42438978209308E-18  -7.37700858187429E-08
     -1.09754057006226E-13
      5.70000000000000E-02
      1.14000000000000E-01   1.14000000000000E-01   0.00000000000000E+00   0.00000000000000E+00   7.38170284295191E-08
     -3.58926792927561E-20   7.38170284294832E-08   1.07868426680862E-13   0.00000000000000E+00   0.00000000000000E+00
      0.00000000000000E+00   0.00000000000000E+00  -7.38170283813545E-08  -4.81227839070891E-17  -7.38170284294773E-08
     -1.09951834380938E-13
      5.80000000000000E-02
      1.16000000000000E-01   1.16000000000000E-01   0.00000000000000E+00   0.00000000000000E+00   7.38637491202453E-08
     -3.48430964541056E-20   7.38637491202105E-08   1.08065938187165E-13   0.00000000000000E+00   0.00000000000000E+00
      0.00000000000000E+00   0.00000000000000E+00  -7.38637491443372E-08   2.41169141942517E-17  -7.38637491202203E-08
     -1.10149345887404E-13
      5.90000000000000E-02
      1.18000000000000E-01   1.18000000000000E-01   0.00000000000000E+00   0.00000000000000E+00   7.39102530530937E-08
     -3.41803550278102E-20   7.39102530530595E-08   1.08263184906875E-13   0.00000000000000E+00   0.00000000000000E+00
      0.00000000000000E+00   0.00000000000000E+00  -7.39102530246095E-08  -2.84524915518029E-17  -7.39102530530620E-08
     -1.10346592607276E-13
      6.00000000000000E-02
      1.20000000000000E-01   1.20000000000000E-01   0.00000000000000E+00   0.00000000000000E+00   7.39565451075048E-08
     -3.31922783198345E-20   7.39565451074716E-08   1.08460167913624E-13   0.00000000000000E+00   0.00000000000000E+00
      0.00000000000000E+00   0.00000000000000E+00  -7.39565451059960E-08  -1.48735406350782E-18  -7.39565451074833E-08
     -1.10543575614185E-13
      6.10000000000000E-02
      1.22000000000000E-01   1.22000000000000E-01   0.00000000000000E+00   0.00000000000000E+00   7.40026299177237E-08
     -3.23832942332668E-20   7.40026299176913E-08   1.08656888273093E-13   0.00000000000000E+00   0.00000000000000E+00
      0.00000000000000E+00   0.00000000000000E+00  -7.40026299022503E-08  -1.54396258757588E-17  -7.40026299176899E-08
     -1.10740295973817E-13
      6.20000000000000E-02
      1.24000000000000E-01   1.24000000000000E-01   0.00000000000000E+00   0.00000000000000E+00   7.40485119083153E-08
     -3.16784208121218E-20   7.40485119082836E-08   1.08853347043095E-13   0.00000000000000E+00   0.00000000000000E+00
      0.00000000000000E+00   0.00000000000000E+00  -7.40485119065126E-08  -1.76113440850655E-18  -7.40485119082738E-08
     -1.10936754743977E-13
      6.30000000000000E-02
      1.26000000000000E-01   1.26000000000000E-01   0.00000000000000E+00   0.00000000000000E+00   7.40941953275922E-08
     -3.09606073921580E-20   7.40941953275612E-08   1.09049545273654E-13   0.00000000000000E+00   0.00000000000000E+00
      0.00000000000000E+00   0.00000000000000E+00  -7.40941953238009E-08  -3.77282880969483E-18  -7.40941953275737E-08
     -1.11132952974699E-13
      6.40000000000000E-02
      1.28000000000000E-01   1.28000000000000E-01   0.00000000000000E+00   0.00000000000000E+00   7.41396842788489E-08
     -3.00995173436041E-20   7.41396842788188E-08   1.09245484007084E-13   0.00000000000000E+00   0.00000000000000E+00
      0.00000000000000E+00   0.00000000000000E+00  -7.41396843063339E-08   2.74973214164672E-17  -7.41396842788366E-08
     -1.11328891708290E-13
      6.50000000000000E-02
      1.30000000000000E-01   1.30000000000000E-01   0.00000000000000E+00   0.00000000000000E+00   7.41849827493235E-08
     -2.93463435942957E-20   7.41849827492942E-08   1.09441164278067E-13   0.00000000000000E+00   0.00000000000000E+00
      0.00000000000000E+00   0.00000000000000E+00  -7.41849826642204E-08  -8.50700953089570E-17  -7.41849827492905E-08
     -1.11524571979436E-13
      6.60000000000000E-02
      1.32000000000000E-01   1.32000000000000E-01   0.00000000000000E+00   0.00000000000000E+00   7.42300946367993E-08
     -2.85098129631282E-20   7.42300946367708E-08   1.09636587113727E-13   0.00000000000000E+00   0.00000000000000E+00
      0.00000000000000E+00   0.00000000000000E+00  -7.42300946256599E-08  -1.11157306497385E-17  -7.42300946367756E-08
     -1.11719994815256E-13
      6.70000000000000E-02
      1.34000000000000E-01   1.34000000000000E-01   0.00000000000000E+00   0.00000000000000E+00   7.42750237737683E-08
     -2.77404294076699E-20   7.42750237737406E-08   1.09831753533708E-13   0.00000000000000E+00   0.00000000000000E+00
      0.00000000000000E+00   0.00000000000000E+00  -7.42750237648004E-08  -8.94682333978814E-18  -7.42750237737473E-08
     -1.11915161235402E-13
      6.80000000000000E-02
      1.36000000000000E-01   1.36000000000000E-01   0.00000000000000E+00   0.00000000000000E+00   7.43197739491191E-08
     -2.70857380360685E-20   7.43197739490920E-08   1.10026664550247E-13   0.00000000000000E+00   0.00000000000000E+00
      0.00000000000000E+00   0.00000000000000E+00  -7.43197739844327E-08   3.53712773000502E-17  -7.43197739490615E-08
     -1.12110072252106E-13
      6.90000000000000E-02