DF-ISE text

Info {
  version   = 1.0
  type      = xyplot
  datasets  = [
    "frequency"
    "v(g)" "v(b)" "a(g,g)" "c(g,g)" "a(g,b)"
    "c(g,b)" "a(b,g)" "c(b,g)" "a(b,b)" "c(b,b)" ]
  functions = [
    Frequency
    Voltage Voltage Admittance Capacitance Admittance
    Capacitance Admittance Capacitance Admittance Capacitance ]
}

Data {
      1.00000000000000E+00
      1.00000000000000E+01   0.00000000000000E+00  -3.21405841118538E+09   2.04417514789502E-16  -9.81246228343451E-03
     -2.04417514793591E-16  -9.81246228343435E-03  -2.04417514793746E-16  -3.21405841118538E+09   2.04417514794754E-16
      1.80472176682717E+00
      1.00000000000000E+01   0.00000000000000E+00  -3.21405841118538E+09   2.04417514780682E-16  -9.81246228343451E-03
     -2.04417514793600E-16  -9.81246228343435E-03  -2.04417514793756E-16  -3.21405841118538E+09   2.04417514794437E-16
      3.25702065565978E+00
      1.00000000000000E+01   0.00000000000000E+00  -3.21405841118538E+09   2.04417514778887E-16  -9.81246228343451E-03
     -2.04417514793594E-16  -9.81246228343435E-03  -2.04417514793744E-16  -3.21405841118538E+09   2.04417514794929E-16
      5.87801607227491E+00
      1.00000000000000E+01   0.00000000000000E+00  -3.21405841118538E+09   2.04417514774932E-16  -9.81246228343451E-03
     -2.04417514793629E-16  -9.81246228343435E-03  -2.04417514793780E-16  -3.21405841118538E+09   2.04417514794252E-16
      1.06081835513945E+01
      1.00000000000000E+01   0.00000000000000E+00  -3.21405841118538E+09   2.04417514807385E-16  -9.81246228343451E-03
     -2.04417514793588E-16  -9.81246228343435E-03  -2.04417514793735E-16  -3.21405841118538E+09   2.04417514795152E-16
      1.91448197616996E+01
      1.00000000000000E+01   0.00000000000000E+00  -3.21405841118538E+09   2.04417514772860E-16  -9.81246228343451E-03
     -2.04417514793630E-16  -9.81246228343435E-03  -2.04417514793786E-16  -3.21405841118538E+09   2.04417514795268E-16
      3.45510729459222E+01
      1.00000000000000E+01   0.00000000000000E+00  -3.21405841118538E+09   2.04417514777038E-16  -9.81246228343451E-03
     -2.04417514793593E-16  -9.81246228343435E-03  -2.04417514793743E-16  -3.21405841118538E+09   2.04417514794567E-16
      6.23550734127392E+01
      1.00000000000000E+01   0.00000000000000E+00  -3.21405841118538E+09   2.04417514810282E-16  -9.81246228343451E-03
     -2.04417514793595E-16  -9.81246228343435E-03  -2.04417514793748E-16  -3.21405841118538E+09   2.04417514794740E-16
      1.12533558260076E+02
      1.00000000000000E+01   0.00000000000000E+00  -3.21405841118538E+09   2.04417514799271E-16  -9.81246228343451E-03
     -2.04417514793603E-16  -9.81246228343435E-03  -2.04417514793754E-16  -3.21405841118538E+09   2.04417514794615E-16
      2.03091762090474E+02
      1.00000000000000E+01   0.00000000000000E+00  -3.21405841118538E+09   2.04417514792632E-16  -9.81246228343451E-03
     -2.04417514793642E-16  -9.81246228343435E-03  -2.04417514793790E-16  -3.21405841118538E+09   2.04417514794782E-16
      3.66524123707963E+02
      1.00000000000000E+01   0.00000000000000E+00  -3.21405841118538E+09   2.04417514778308E-16  -9.81246228343451E-03
     -2.04417514793595E-16  -9.81246228343436E-03  -2.04417514793744E-16  -3.21405841118538E+09   2.04417514794796E-16
      6.61474064123015E+02
      1.00000000000000E+01   0.00000000000000E+00  -3.21405841118538E+09   2.04417514773973E-16  -9.81246228343451E-03
     -2.04417514793574E-16  -9.81246228343436E-03  -2.04417514793731E-16  -3.21405841118538E+09   2.04417514794875E-16
      1.19377664171444E+03
      1.00000000000000E+01   0.00000000000000E+00  -3.21405841118538E+09   2.04417514841594E-16  -9.81246228343451E-03
     -2.04417514793618E-16  -9.81246228343436E-03  -2.04417514793764E-16  -3.21405841118538E+09   2.04417514795064E-16
      2.15443469003188E+03
      1.00000000000000E+01   0.00000000000000E+00  -3.21405841118538E+09   2.04417514795297E-16  -9.81246228343450E-03
     -2.04417514793599E-16  -9.81246228343434E-03  -2.04417514793752E-16  -3.21405841118538E+09   2.04417514794572E-16
      3.88815518030809E+03
      1.00000000000000E+01   0.00000000000000E+00  -3.21405841118538E+09   2.04417514801658E-16  -9.81246228343447E-03
     -2.04417514793623E-16  -9.81246228343431E-03  -2.04417514793776E-16  -3.21405841118538E+09   2.04417514794208E-16
      7.01703828670382E+03
      1.00000000000000E+01   0.00000000000000E+00  -3.21405841118538E+09   2.04417514812943E-16  -9.81246228343438E-03
     -2.04417514793753E-16  -9.81246228343421E-03  -2.04417514793905E-16  -3.21405841118538E+09   2.04417514793844E-16
      1.26638017346740E+04
      1.00000000000000E+01   0.00000000000000E+00  -3.21405841118538E+09   2.04417514819343E-16  -9.81246228343478E-03
     -2.04417514793838E-16  -9.81246228343465E-03  -2.04417514793981E-16  -3.21405841118538E+09   2.04417514794454E-16
      2.28546386413499E+04
      1.00000000000000E+01   0.00000000000000E+00  -3.21405841118538E+09   2.04417514803305E-16  -9.81246228343228E-03
     -2.04417514793356E-16  -9.81246228343206E-03  -2.04417514793549E-16  -3.21405841118538E+09   2.04417514793525E-16
      4.12462638290135E+04
      1.00000000000000E+01   0.00000000000000E+00  -3.21405841118538E+09   2.04417514777420E-16  -9.81246228343714E-03
     -2.04417514795061E-16  -9.81246228343701E-03  -2.04417514795184E-16  -3.21405841118538E+09   2.04417514791017E-16
      7.44380301325169E+04
      1.00000000000000E+01   0.00000000000000E+00  -3.21405841118538E+09   2.04417514786299E-16  -9.81246228342802E-03
     -2.04417514792023E-16  -9.81246228342727E-03  -2.04417514792498E-16  -3.21405841118538E+09   2.04417514782684E-16
      1.34339933259890E+05
      1.00000000000000E+01   0.00000000000000E+00  -3.21405841118538E+09   2.04417514764735E-16  -9.81246228344130E-03
     -2.04417514793659E-16  -9.81246228344110E-03  -2.04417514793824E-16  -3.21405841118538E+09   2.04417514790736E-16
      2.42446201708233E+05
      1.00000000000000E+01   0.00000000000000E+00  -3.21405841118538E+09   2.04417514775979E-16  -9.81246228343649E-03
     -2.04417514794253E-16  -9.81246228343632E-03  -2.04417514794391E-16  -3.21405841118538E+09   2.04417514794991E-16
      4.37547937507419E+05
      1.00000000000000E+01   0.00000000000000E+00  -3.21405841118538E+09   2.04417514782512E-16  -9.81246228343705E-03
     -2.04417514794324E-16  -9.81246228343705E-03  -2.04417514794385E-16  -3.21405841118538E+09   2.04417514798610E-16
      7.89652286849972E+05
      1.00000000000000E+01   0.00000000000000E+00  -3.21405841118538E+09   2.04417514792131E-16  -9.81246228343250E-03
     -2.04417514792428E-16  -9.81246228343210E-03  -2.04417514792734E-16  -3.21405841118538E+09   2.04417514793312E-16
      1.42510267030300E+06
      1.00000000000000E+01   0.00000000000000E+00  -3.21405841118538E+09   2.04417514803099E-16  -9.81246228343433E-03
     -2.04417514793766E-16  -9.81246228343416E-03  -2.04417514793936E-16  -3.21405841118538E+09   2.04417514793954E-16
      2.57191380905934E+06
      1.00000000000000E+01   0.00000000000000E+00  -3.21405841118538E+09   2.04417514840597E-16  -9.81246228343174E-03
     -2.04417514793593E-16  -9.81246228343155E-03  -2.04417514793802E-16  -3.21405841118538E+09   2.04417514792421E-16
      4.64158883361278E+06
      1.00000000000000E+01   0.00000000000000E+00  -3.21405841118538E+09   2.04417514821657E-16  -9.81246228342512E-03
     -2.04417514794720E-16  -9.81246228342508E-03  -2.04417514794809E-16  -3.21405841118538E+09   2.04417514796462E-16
      8.37677640068293E+06
      1.00000000000000E+01   0.00000000000000E+00  -3.21405841118538E+09   2.04417514797226E-16  -9.81246228341053E-03
     -2.04417514794789E-16  -9.81246228341030E-03  -2.04417514794969E-16  -3.21405841118538E+09   2.04417514797287E-16
      1.51177507061567E+07
      1.00000000000000E+01   0.00000000000000E+00  -3.21405841118538E+09   2.04417514773909E-16  -9.81246228335799E-03
     -2.04417514798348E-16  -9.81246228335775E-03  -2.04417514798537E-16  -3.21405841118538E+09   2.04417514801911E-16
      2.72833337648676E+07
      1.00000000000000E+01   0.00000000000000E+00  -3.21405841118538E+09   2.04417514816352E-16  -9.81246228319128E-03
     -2.04417514810741E-16  -9.81246228319104E-03  -2.04417514810909E-16  -3.21405841118538E+09   2.04417514812685E-16
      4.92388263170673E+07
      1.00000000000000E+01   0.00000000000000E+00  -3.21405841118538E+09   2.04417514827857E-16  -9.81246228265694E-03
     -2.04417514850379E-16  -9.81246228265676E-03  -2.04417514850526E-16  -3.21405841118538E+09   2.04417514850978E-16
      8.88623816274339E+07
      1.00000000000000E+01   0.00000000000000E+00  -3.21405841118538E+09   2.04417515007339E-16  -9.81246228089705E-03
     -2.04417514979271E-16  -9.81246228089689E-03  -2.04417514979395E-16  -3.21405841118538E+09   2.04417514979204E-16
      1.60371874375133E+08
      1.00000000000000E+01   0.00000000000000E+00  -3.21405841118538E+09   2.04417515429053E-16  -9.81246227517953E-03
     -2.04417515398266E-16  -9.81246227517937E-03  -2.04417515398428E-16  -3.21405841118538E+09   2.04417515398409E-16
      2.89426612471675E+08
      1.00000000000000E+01   0.00000000000000E+00  -3.21405841118538E+09   2.04417516751582E-16  -9.81246225655974E-03
     -2.04417516762629E-16  -9.81246225655965E-03  -2.04417516762747E-16  -3.21405841118538E+09   2.04417516764144E-16
      5.22334507426686E+08
      1.00000000000000E+01   0.00000000000000E+00  -3.21405841118538E+09   2.04417521228006E-16  -9.81246219591843E-03
     -2.04417521206955E-16  -9.81246219591829E-03  -2.04417521207089E-16  -3.21405841118538E+09   2.04417521208388E-16
      9.42668455117888E+08
      1.00000000000000E+01   0.00000000000000E+00  -3.21405841118538E+09   2.04417535686825E-16  -9.81246199843236E-03
     -2.04417535687513E-16  -9.81246199843208E-03  -2.04417535687666E-16  -3.21405841118538E+09   2.04417535688713E-16
      1.70125427985259E+09
      1.00000000000000E+01   0.00000000000000E+00  -3.21405841118538E+09   2.04417582895514E-16  -9.81246135517961E-03
     -2.04417582894818E-16  -9.81246135517944E-03  -2.04417582894926E-16  -3.21405841118538E+09   2.04417582895203E-16
      3.07029062975785E+09
      1.00000000000000E+01   0.00000000000000E+00  -3.21405841118538E+09   2.04417737115466E-16  -9.81245926002327E-03
     -2.04417737100581E-16  -9.81245926002297E-03  -2.04417737100802E-16  -3.21405841118538E+09   2.04417737102128E-16
      5.54102033000949E+09
      1.00000000000000E+01   0.00000000000000E+00  -3.21405841118538E+09   2.04418243891187E-16  -9.81245243502947E-03
     -2.04418243893912E-16  -9.81245243502909E-03  -2.04418243894141E-16  -3.21405841118538E+09   2.04418243895317E-16
      1.00000000000000E+10
      1.00000000000000E+01   0.00000000000000E+00  -3.21405841118538E+09   2.04419935341666E-16  -9.81243019629569E-03
     -2.04419935359670E-16  -9.81243019629555E-03  -2.04419935359837E-16  -3.21405841118538E+09   2.04419935361020E-16
}
