DF-ISE text

Info {
  version   = 1.0
  type      = xyplot
  datasets  = [
    "frequency"
    "v(g)" "v(b)" "a(g,g)" "c(g,g)" "a(g,b)"
    "c(g,b)" "a(b,g)" "c(b,g)" "a(b,b)" "c(b,b)" ]
  functions = [
    Frequency
    Voltage Voltage Admittance Capacitance Admittance
    Capacitance Admittance Capacitance Admittance Capacitance ]
}

Data {
      1.00000000000000E+00
      1.00000000000000E+01   0.00000000000000E+00  -3.21405841118538E+09   1.93928486977673E-16  -9.81128825336296E-03
     -1.93928486993720E-16  -9.81128825336271E-03  -1.93928486993917E-16  -3.21405841118538E+09   1.93928486995199E-16
      1.80472176682717E+00
      1.00000000000000E+01   0.00000000000000E+00  -3.21405841118538E+09   1.93928486984791E-16  -9.81128825336296E-03
     -1.93928486993758E-16  -9.81128825336271E-03  -1.93928486993948E-16  -3.21405841118538E+09   1.93928486994503E-16
      3.25702065565978E+00
      1.00000000000000E+01   0.00000000000000E+00  -3.21405841118538E+09   1.93928487009584E-16  -9.81128825336296E-03
     -1.93928486993725E-16  -9.81128825336271E-03  -1.93928486993911E-16  -3.21405841118538E+09   1.93928486995170E-16
      5.87801607227491E+00
      1.00000000000000E+01   0.00000000000000E+00  -3.21405841118538E+09   1.93928486996690E-16  -9.81128825336296E-03
     -1.93928486993738E-16  -9.81128825336271E-03  -1.93928486993929E-16  -3.21405841118538E+09   1.93928486994667E-16
      1.06081835513945E+01
      1.00000000000000E+01   0.00000000000000E+00  -3.21405841118538E+09   1.93928487010242E-16  -9.81128825336296E-03
     -1.93928486993712E-16  -9.81128825336271E-03  -1.93928486993912E-16  -3.21405841118538E+09   1.93928486994667E-16
      1.91448197616996E+01
      1.00000000000000E+01   0.00000000000000E+00  -3.21405841118538E+09   1.93928486977499E-16  -9.81128825336296E-03
     -1.93928486993725E-16  -9.81128825336271E-03  -1.93928486993916E-16  -3.21405841118538E+09   1.93928486995115E-16
      3.45510729459222E+01
      1.00000000000000E+01   0.00000000000000E+00  -3.21405841118538E+09   1.93928486980920E-16  -9.81128825336296E-03
     -1.93928486993735E-16  -9.81128825336271E-03  -1.93928486993930E-16  -3.21405841118538E+09   1.93928486994608E-16
      6.23550734127392E+01
      1.00000000000000E+01   0.00000000000000E+00  -3.21405841118538E+09   1.93928486983197E-16  -9.81128825336296E-03
     -1.93928486993736E-16  -9.81128825336271E-03  -1.93928486993928E-16  -3.21405841118538E+09   1.93928486994674E-16
      1.12533558260076E+02
      1.00000000000000E+01   0.00000000000000E+00  -3.21405841118538E+09   1.93928486985482E-16  -9.81128825336296E-03
     -1.93928486993731E-16  -9.81128825336271E-03  -1.93928486993920E-16  -3.21405841118538E+09   1.93928486994697E-16
      2.03091762090474E+02
      1.00000000000000E+01   0.00000000000000E+00  -3.21405841118538E+09   1.93928486989012E-16  -9.81128825336296E-03
     -1.93928486993700E-16  -9.81128825336271E-03  -1.93928486993893E-16  -3.21405841118538E+09   1.93928486995170E-16
      3.66524123707963E+02
      1.00000000000000E+01   0.00000000000000E+00  -3.21405841118538E+09   1.93928486991984E-16  -9.81128825336296E-03
     -1.93928486993734E-16  -9.81128825336271E-03  -1.93928486993923E-16  -3.21405841118538E+09   1.93928486994732E-16
      6.61474064123015E+02
      1.00000000000000E+01   0.00000000000000E+00  -3.21405841118538E+09   1.93928487007028E-16  -9.81128825336297E-03
     -1.93928486993738E-16  -9.81128825336273E-03  -1.93928486993932E-16  -3.21405841118538E+09   1.93928486994789E-16
      1.19377664171444E+03
      1.00000000000000E+01   0.00000000000000E+00  -3.21405841118538E+09   1.93928486979406E-16  -9.81128825336296E-03
     -1.93928486993709E-16  -9.81128825336271E-03  -1.93928486993900E-16  -3.21405841118538E+09   1.93928486995084E-16
      2.15443469003188E+03
      1.00000000000000E+01   0.00000000000000E+00  -3.21405841118538E+09   1.93928486978402E-16  -9.81128825336295E-03
     -1.93928486993714E-16  -9.81128825336270E-03  -1.93928486993906E-16  -3.21405841118538E+09   1.93928486994786E-16
      3.88815518030809E+03
      1.00000000000000E+01   0.00000000000000E+00  -3.21405841118538E+09   1.93928486988993E-16  -9.81128825336287E-03
     -1.93928486993760E-16  -9.81128825336263E-03  -1.93928486993957E-16  -3.21405841118538E+09   1.93928486994899E-16
      7.01703828670382E+03
      1.00000000000000E+01   0.00000000000000E+00  -3.21405841118538E+09   1.93928486998127E-16  -9.81128825336287E-03
     -1.93928486993879E-16  -9.81128825336262E-03  -1.93928486994081E-16  -3.21405841118538E+09   1.93928486993603E-16
      1.26638017346740E+04
      1.00000000000000E+01   0.00000000000000E+00  -3.21405841118538E+09   1.93928487004799E-16  -9.81128825336322E-03
     -1.93928486993929E-16  -9.81128825336298E-03  -1.93928486994104E-16  -3.21405841118538E+09   1.93928486993868E-16
      2.28546386413499E+04
      1.00000000000000E+01   0.00000000000000E+00  -3.21405841118538E+09   1.93928487000573E-16  -9.81128825336031E-03
     -1.93928486993825E-16  -9.81128825336003E-03  -1.93928486994095E-16  -3.21405841118538E+09   1.93928486992264E-16
      4.12462638290135E+04
      1.00000000000000E+01   0.00000000000000E+00  -3.21405841118538E+09   1.93928486994546E-16  -9.81128825336497E-03
     -1.93928486995037E-16  -9.81128825336475E-03  -1.93928486995150E-16  -3.21405841118538E+09   1.93928486990309E-16
      7.44380301325169E+04
      1.00000000000000E+01   0.00000000000000E+00  -3.21405841118538E+09   1.93928486960885E-16  -9.81128825335468E-03
     -1.93928486994190E-16  -9.81128825335380E-03  -1.93928486995066E-16  -3.21405841118538E+09   1.93928486981980E-16
      1.34339933259890E+05
      1.00000000000000E+01   0.00000000000000E+00  -3.21405841118538E+09   1.93928487012067E-16  -9.81128825336943E-03
     -1.93928486994135E-16  -9.81128825336918E-03  -1.93928486994370E-16  -3.21405841118538E+09   1.93928486990163E-16
      2.42446201708233E+05
      1.00000000000000E+01   0.00000000000000E+00  -3.21405841118538E+09   1.93928486987253E-16  -9.81128825336437E-03
     -1.93928486994361E-16  -9.81128825336410E-03  -1.93928486994518E-16  -3.21405841118538E+09   1.93928486994103E-16
      4.37547937507419E+05
      1.00000000000000E+01   0.00000000000000E+00  -3.21405841118538E+09   1.93928487001331E-16  -9.81128825336510E-03
     -1.93928486993960E-16  -9.81128825336502E-03  -1.93928486993977E-16  -3.21405841118538E+09   1.93928486998627E-16
      7.89652286849972E+05
      1.00000000000000E+01   0.00000000000000E+00  -3.21405841118538E+09   1.93928486986542E-16  -9.81128825336046E-03
     -1.93928486993512E-16  -9.81128825336002E-03  -1.93928486994030E-16  -3.21405841118538E+09   1.93928486992554E-16
      1.42510267030300E+06
      1.00000000000000E+01   0.00000000000000E+00  -3.21405841118538E+09   1.93928486999247E-16  -9.81128825336141E-03
     -1.93928486993859E-16  -9.81128825336118E-03  -1.93928486994025E-16  -3.21405841118538E+09   1.93928486993588E-16
      2.57191380905934E+06
      1.00000000000000E+01   0.00000000000000E+00  -3.21405841118538E+09   1.93928486985624E-16  -9.81128825336039E-03
     -1.93928486993858E-16  -9.81128825336014E-03  -1.93928486994055E-16  -3.21405841118538E+09   1.93928486991120E-16
      4.64158883361278E+06
      1.00000000000000E+01   0.00000000000000E+00  -3.21405841118538E+09   1.93928486996532E-16  -9.81128825335466E-03
     -1.93928486994167E-16  -9.81128825335456E-03  -1.93928486994155E-16  -3.21405841118538E+09   1.93928486995654E-16
      8.37677640068293E+06
      1.00000000000000E+01   0.00000000000000E+00  -3.21405841118538E+09   1.93928487016724E-16  -9.81128825333793E-03
     -1.93928486995096E-16  -9.81128825333770E-03  -1.93928486995320E-16  -3.21405841118538E+09   1.93928486995740E-16
      1.51177507061567E+07
      1.00000000000000E+01   0.00000000000000E+00  -3.21405841118538E+09   1.93928487017574E-16  -9.81128825326865E-03
     -1.93928486997717E-16  -9.81128825326845E-03  -1.93928486997850E-16  -3.21405841118538E+09   1.93928486997138E-16
      2.72833337648676E+07
      1.00000000000000E+01   0.00000000000000E+00  -3.21405841118538E+09   1.93928487012532E-16  -9.81128825305870E-03
     -1.93928487006776E-16  -9.81128825305846E-03  -1.93928487006946E-16  -3.21405841118538E+09   1.93928487007093E-16
      4.92388263170673E+07
      1.00000000000000E+01   0.00000000000000E+00  -3.21405841118538E+09   1.93928487055303E-16  -9.81128825236522E-03
     -1.93928487035920E-16  -9.81128825236502E-03  -1.93928487036089E-16  -3.21405841118538E+09   1.93928487035980E-16
      8.88623816274339E+07
      1.00000000000000E+01   0.00000000000000E+00  -3.21405841118538E+09   1.93928487132045E-16  -9.81128825010749E-03
     -1.93928487130329E-16  -9.81128825010728E-03  -1.93928487130506E-16  -3.21405841118538E+09   1.93928487131005E-16
      1.60371874375133E+08
      1.00000000000000E+01   0.00000000000000E+00  -3.21405841118538E+09   1.93928487452386E-16  -9.81128824274475E-03
     -1.93928487437981E-16  -9.81128824274447E-03  -1.93928487438164E-16  -3.21405841118538E+09   1.93928487437769E-16
      2.89426612471675E+08
      1.00000000000000E+01   0.00000000000000E+00  -3.21405841118538E+09   1.93928488445580E-16  -9.81128821877867E-03
     -1.93928488441496E-16  -9.81128821877847E-03  -1.93928488441646E-16  -3.21405841118538E+09   1.93928488441538E-16
      5.22334507426686E+08
      1.00000000000000E+01   0.00000000000000E+00  -3.21405841118538E+09   1.93928491707347E-16  -9.81128814071181E-03
     -1.93928491713514E-16  -9.81128814071153E-03  -1.93928491713659E-16  -3.21405841118538E+09   1.93928491713308E-16
      9.42668455117888E+08
      1.00000000000000E+01   0.00000000000000E+00  -3.21405841118538E+09   1.93928502426843E-16  -9.81128788646440E-03
     -1.93928502420607E-16  -9.81128788646405E-03  -1.93928502420878E-16  -3.21405841118538E+09   1.93928502420309E-16
      1.70125427985259E+09
      1.00000000000000E+01   0.00000000000000E+00  -3.21405841118538E+09   1.93928537824628E-16  -9.81128705825100E-03
     -1.93928537812124E-16  -9.81128705825067E-03  -1.93928537812381E-16  -3.21405841118538E+09   1.93928537811617E-16
      3.07029062975785E+09
      1.00000000000000E+01   0.00000000000000E+00  -3.21405841118538E+09   1.93928658516936E-16  -9.81128435990147E-03
     -1.93928658507548E-16  -9.81128435990120E-03  -1.93928658507720E-16  -3.21405841118538E+09   1.93928658508237E-16
      5.54102033000949E+09
      1.00000000000000E+01   0.00000000000000E+00  -3.21405841118538E+09   1.93929106616757E-16  -9.81127556268555E-03
     -1.93929106609361E-16  -9.81127556268530E-03  -1.93929106609632E-16  -3.21405841118538E+09   1.93929106609324E-16
      1.00000000000000E+10
      1.00000000000000E+01   0.00000000000000E+00  -3.21405841118538E+09   1.93931073863154E-16  -9.81124682971516E-03
     -1.93931073852740E-16  -9.81124682971479E-03  -1.93931073852925E-16  -3.21405841118538E+09   1.93931073852785E-16
}
