DF-ISE text

Info {
  version   = 1.0
  type      = xyplot
  datasets  = [
    "frequency"
    "v(g)" "v(b)" "a(g,g)" "c(g,g)" "a(g,b)"
    "c(g,b)" "a(b,g)" "c(b,g)" "a(b,b)" "c(b,b)" ]
  functions = [
    Frequency
    Voltage Voltage Admittance Capacitance Admittance
    Capacitance Admittance Capacitance Admittance Capacitance ]
}

Data {
      1.00000000000000E+00
      1.00000000000000E+01   0.00000000000000E+00  -3.21405841119121E+09  -7.19657146098598E-16  -3.98328256204454E-03
      7.19657141633788E-16  -3.98328256204524E-03   7.19657145846924E-16  -3.21405841119121E+09  -7.19657141423906E-16
      1.80472176682717E+00
      1.00000000000000E+01   0.00000000000000E+00  -3.21405841119121E+09  -7.19657146099294E-16  -3.98328256204454E-03
      7.19657141762114E-16  -3.98328256204524E-03   7.19657145846556E-16  -3.21405841119121E+09  -7.19657141336377E-16
      3.25702065565978E+00
      1.00000000000000E+01   0.00000000000000E+00  -3.21405841119121E+09  -7.19657146099680E-16  -3.98328256204454E-03
      7.19657141703443E-16  -3.98328256204524E-03   7.19657145845523E-16  -3.21405841119121E+09  -7.19657141447561E-16
      5.87801607227491E+00
      1.00000000000000E+01   0.00000000000000E+00  -3.21405841119121E+09  -7.19657146094710E-16  -3.98328256204454E-03
      7.19657141685302E-16  -3.98328256204523E-03   7.19657145842146E-16  -3.21405841119121E+09  -7.19657141272982E-16
      1.06081835513945E+01
      1.00000000000000E+01   0.00000000000000E+00  -3.21405841119121E+09  -7.19657146086394E-16  -3.98328256204453E-03
      7.19657141688040E-16  -3.98328256204523E-03   7.19657145830060E-16  -3.21405841119121E+09  -7.19657141481730E-16
      1.91448197616996E+01
      1.00000000000000E+01   0.00000000000000E+00  -3.21405841119121E+09  -7.19657146047680E-16  -3.98328256204455E-03
      7.19657141584787E-16  -3.98328256204525E-03   7.19657145793724E-16  -3.21405841119121E+09  -7.19657141525022E-16
      3.45510729459222E+01
      1.00000000000000E+01   0.00000000000000E+00  -3.21405841119121E+09  -7.19657145930992E-16  -3.98328256204454E-03
      7.19657141225592E-16  -3.98328256204524E-03   7.19657145677555E-16  -3.21405841119121E+09  -7.19657141132026E-16
      6.23550734127392E+01
      1.00000000000000E+01   0.00000000000000E+00  -3.21405841119121E+09  -7.19657145547349E-16  -3.98328256204451E-03
      7.19657141293616E-16  -3.98328256204520E-03   7.19657145290626E-16  -3.21405841119121E+09  -7.19657141113649E-16
      1.12533558260076E+02
      1.00000000000000E+01   0.00000000000000E+00  -3.21405841119121E+09  -7.19657144286864E-16  -3.98328256204453E-03
      7.19657139959276E-16  -3.98328256204523E-03   7.19657144033918E-16  -3.21405841119121E+09  -7.19657139894017E-16
      2.03091762090474E+02
      1.00000000000000E+01   0.00000000000000E+00  -3.21405841119121E+09  -7.19657140202279E-16  -3.98328256204450E-03
      7.19657136495548E-16  -3.98328256204517E-03   7.19657139943987E-16  -3.21405841119121E+09  -7.19657136275300E-16
      3.66524123707963E+02
      1.00000000000000E+01   0.00000000000000E+00  -3.21405841119121E+09  -7.19657126881517E-16  -3.98328256204432E-03
      7.19657122261019E-16  -3.98328256204503E-03   7.19657126621613E-16  -3.21405841119121E+09  -7.19657121997386E-16
      6.61474064123015E+02
      1.00000000000000E+01   0.00000000000000E+00  -3.21405841119121E+09  -7.19657083494682E-16  -3.98328256204306E-03
      7.19657079322385E-16  -3.98328256204374E-03   7.19657083241033E-16  -3.21405841119121E+09  -7.19657079081708E-16
      1.19377664171444E+03
      1.00000000000000E+01   0.00000000000000E+00  -3.21405841119121E+09  -7.19656942202889E-16  -3.98328256204093E-03
      7.19656938562653E-16  -3.98328256204161E-03   7.19656941946050E-16  -3.21405841119121E+09  -7.19656937945142E-16
      2.15443469003188E+03
      1.00000000000000E+01   0.00000000000000E+00  -3.21405841119121E+09  -7.19656481982883E-16  -3.98328256203199E-03
      7.19656479398574E-16  -3.98328256203264E-03   7.19656481728859E-16  -3.21405841119121E+09  -7.19656479094983E-16
      3.88815518030809E+03
      1.00000000000000E+01   0.00000000000000E+00  -3.21405841119121E+09  -7.19654983026822E-16  -3.98328256200386E-03
      7.19654978093563E-16  -3.98328256200458E-03   7.19654982787420E-16  -3.21405841119121E+09  -7.19654977750243E-16
      7.01703828670382E+03
      1.00000000000000E+01   0.00000000000000E+00  -3.21405841119121E+09  -7.19650100930931E-16  -3.98328256190946E-03
      7.19650093202739E-16  -3.98328256191023E-03   7.19650100664480E-16  -3.21405841119121E+09  -7.19650092809612E-16
      1.26638017346740E+04
      1.00000000000000E+01   0.00000000000000E+00  -3.21405841119121E+09  -7.19634200150222E-16  -3.98328256160299E-03
      7.19634191041141E-16  -3.98328256160381E-03   7.19634199901883E-16  -3.21405841119121E+09  -7.19634190838079E-16
      2.28546386413499E+04
      1.00000000000000E+01   0.00000000000000E+00  -3.21405841119121E+09  -7.19582413485805E-16  -3.98328256059920E-03
      7.19582406948732E-16  -3.98328256059994E-03   7.19582413273193E-16  -3.21405841119121E+09  -7.19582406719676E-16
      4.12462638290135E+04
      1.00000000000000E+01   0.00000000000000E+00  -3.21405841119121E+09  -7.19413770700126E-16  -3.98328255733664E-03
      7.19413761360126E-16  -3.98328255733738E-03   7.19413770463250E-16  -3.21405841119121E+09  -7.19413760934119E-16
      7.44380301325169E+04
      1.00000000000000E+01   0.00000000000000E+00  -3.21405841119121E+09  -7.18864788530331E-16  -3.98328254671665E-03
      7.18864785151048E-16  -3.98328254671721E-03   7.18864788277744E-16  -3.21405841119121E+09  -7.18864785179784E-16
      1.34339933259890E+05
      1.00000000000000E+01   0.00000000000000E+00  -3.21405841119121E+09  -7.17079821367733E-16  -3.98328251219711E-03
      7.17079817127046E-16  -3.98328251219787E-03   7.17079821109396E-16  -3.21405841119121E+09  -7.17079816903072E-16
      2.42446201708233E+05
      1.00000000000000E+01   0.00000000000000E+00  -3.21405841119121E+09  -7.11298613831810E-16  -3.98328240037486E-03
      7.11298609454396E-16  -3.98328240037561E-03   7.11298613616411E-16  -3.21405841119121E+09  -7.11298609263788E-16
      4.37547937507419E+05
      1.00000000000000E+01   0.00000000000000E+00  -3.21405841119121E+09  -6.92806898997640E-16  -3.98328204268917E-03
      6.92806896233599E-16  -3.98328204268969E-03   6.92806898843333E-16  -3.21405841119121E+09  -6.92806896154244E-16
      7.89652286849972E+05
      1.00000000000000E+01   0.00000000000000E+00  -3.21405841119121E+09  -6.35947544289961E-16  -3.98328094288053E-03
      6.35947545828488E-16  -3.98328094288104E-03   6.35947544084832E-16  -3.21405841119121E+09  -6.35947545433211E-16
      1.42510267030300E+06
      1.00000000000000E+01   0.00000000000000E+00  -3.21405841119121E+09  -4.80364268433125E-16  -3.98327793341658E-03
      4.80364268690867E-16  -3.98327793341714E-03   4.80364268303548E-16  -3.21405841119121E+09  -4.80364268553747E-16
      2.57191380905934E+06
      1.00000000000000E+01   0.00000000000000E+00  -3.21405841119121E+09  -1.62323991256679E-16  -3.98327178087680E-03
      1.62323988194453E-16  -3.98327178087743E-03   1.62323991021875E-16  -3.21405841119121E+09  -1.62323987943187E-16
      4.64158883361278E+06
      1.00000000000000E+01   0.00000000000000E+00  -3.21405841119121E+09   2.21893015915084E-16  -3.98326434466246E-03
     -2.21893015078700E-16  -3.98326434466306E-03  -2.21893016047047E-16  -3.21405841119121E+09   2.21893015216852E-16
      8.37677640068293E+06
      1.00000000000000E+01   0.00000000000000E+00  -3.21405841119121E+09   4.74699947570431E-16  -3.98325943746692E-03
     -4.74699947314264E-16  -3.98325943746760E-03  -4.74699947727107E-16  -3.21405841119121E+09   4.74699947478216E-16
      1.51177507061567E+07
      1.00000000000000E+01   0.00000000000000E+00  -3.21405841119121E+09   5.82044367814227E-16  -3.98325730326707E-03
     -5.82044367772746E-16  -3.98325730326774E-03  -5.82044367964610E-16  -3.21405841119121E+09   5.82044367936069E-16
      2.72833337648676E+07
      1.00000000000000E+01   0.00000000000000E+00  -3.21405841119121E+09   6.19113201132354E-16  -3.98325640032982E-03
     -6.19113201171892E-16  -3.98325640033031E-03  -6.19113201227888E-16  -3.21405841119121E+09   6.19113201270816E-16
      4.92388263170673E+07
      1.00000000000000E+01   0.00000000000000E+00  -3.21405841119121E+09   6.31319210979102E-16  -3.98325559225948E-03
     -6.31319211079554E-16  -3.98325559226006E-03  -6.31319211087501E-16  -3.21405841119121E+09   6.31319211191201E-16
      8.88623816274339E+07
      1.00000000000000E+01   0.00000000000000E+00  -3.21405841119121E+09   6.36147511175455E-16  -3.98325391683420E-03
     -6.36147511299631E-16  -3.98325391683495E-03  -6.36147511315467E-16  -3.21405841119121E+09   6.36147511441644E-16
      1.60371874375133E+08
      1.00000000000000E+01   0.00000000000000E+00  -3.21405841119121E+09   6.39559644956410E-16  -3.98325024990891E-03
     -6.39559645091541E-16  -3.98325024990959E-03  -6.39559645092821E-16  -3.21405841119121E+09   6.39559645232130E-16
      2.89426612471675E+08
      1.00000000000000E+01   0.00000000000000E+00  -3.21405841119121E+09   6.43343976453525E-16  -3.98324294691513E-03
     -6.43343976585110E-16  -3.98324294691579E-03  -6.43343976584345E-16  -3.21405841119121E+09   6.43343976715982E-16
      5.22334507426686E+08
      1.00000000000000E+01   0.00000000000000E+00  -3.21405841119121E+09   6.48816407357337E-16  -3.98323362693768E-03
     -6.48816407465753E-16  -3.98323362693820E-03  -6.48816407463068E-16  -3.21405841119121E+09   6.48816407572231E-16
      9.42668455117888E+08
      1.00000000000000E+01   0.00000000000000E+00  -3.21405841119121E+09   6.54018659759844E-16  -3.98324145205000E-03
     -6.54018659878549E-16  -3.98324145205058E-03  -6.54018659875739E-16  -3.21405841119121E+09   6.54018659998824E-16
      1.70125427985259E+09
      1.00000000000000E+01   0.00000000000000E+00  -3.21405841119121E+09   6.57161088393807E-16  -3.98331484482057E-03
     -6.57161088521650E-16  -3.98331484482126E-03  -6.57161088518778E-16  -3.21405841119121E+09   6.57161088649485E-16
      3.07029062975785E+09
      1.00000000000000E+01   0.00000000000000E+00  -3.21405841119121E+09   6.57774041736989E-16  -3.98360183771041E-03
     -6.57774041871256E-16  -3.98360183771108E-03  -6.57774041867763E-16  -3.21405841119121E+09   6.57774042005522E-16
      5.54102033000949E+09
      1.00000000000000E+01   0.00000000000000E+00  -3.21405841119121E+09   6.53710950091278E-16  -3.98455783290247E-03
     -6.53710950223265E-16  -3.98455783290309E-03  -6.53710950219882E-16  -3.21405841119121E+09   6.53710950353991E-16
      1.00000000000000E+10
      1.00000000000000E+01   0.00000000000000E+00  -3.21405841119120E+09   6.38599432864604E-16  -3.98739944164499E-03
     -6.38599432950877E-16  -3.98739944164542E-03  -6.38599432948740E-16  -3.21405841119120E+09   6.38599433035501E-16
}
