DF-ISE text

Info {
  version   = 1.0
  type      = xyplot
  datasets  = [
    "frequency"
    "v(g)" "v(b)" "a(g,g)" "c(g,g)" "a(g,b)"
    "c(g,b)" "a(b,g)" "c(b,g)" "a(b,b)" "c(b,b)" ]
  functions = [
    Frequency
    Voltage Voltage Admittance Capacitance Admittance
    Capacitance Admittance Capacitance Admittance Capacitance ]
}

Data {
      1.00000000000000E+00
      1.00000000000000E+01   0.00000000000000E+00  -3.21405841119110E+09  -1.71309912894721E-15  -4.09259047866840E-03
      1.71309912249368E-15  -4.09259047866917E-03   1.71309912889199E-15  -3.21405841119110E+09  -1.71309912201370E-15
      1.80472176682717E+00
      1.00000000000000E+01   0.00000000000000E+00  -3.21405841119110E+09  -1.71309912894433E-15  -4.09259047866840E-03
      1.71309912215131E-15  -4.09259047866917E-03   1.71309912889117E-15  -3.21405841119110E+09  -1.71309912205003E-15
      3.25702065565978E+00
      1.00000000000000E+01   0.00000000000000E+00  -3.21405841119110E+09  -1.71309912894404E-15  -4.09259047866840E-03
      1.71309912225815E-15  -4.09259047866917E-03   1.71309912888931E-15  -3.21405841119110E+09  -1.71309912193762E-15
      5.87801607227491E+00
      1.00000000000000E+01   0.00000000000000E+00  -3.21405841119110E+09  -1.71309912893901E-15  -4.09259047866841E-03
      1.71309912226435E-15  -4.09259047866918E-03   1.71309912888406E-15  -3.21405841119110E+09  -1.71309912228517E-15
      1.06081835513945E+01
      1.00000000000000E+01   0.00000000000000E+00  -3.21405841119110E+09  -1.71309912892160E-15  -4.09259047866842E-03
      1.71309912223458E-15  -4.09259047866918E-03   1.71309912886649E-15  -3.21405841119110E+09  -1.71309912205684E-15
      1.91448197616996E+01
      1.00000000000000E+01   0.00000000000000E+00  -3.21405841119110E+09  -1.71309912886129E-15  -4.09259047866841E-03
      1.71309912212547E-15  -4.09259047866917E-03   1.71309912880809E-15  -3.21405841119110E+09  -1.71309912197035E-15
      3.45510729459222E+01
      1.00000000000000E+01   0.00000000000000E+00  -3.21405841119110E+09  -1.71309912867112E-15  -4.09259047866859E-03
      1.71309912228970E-15  -4.09259047866935E-03   1.71309912861824E-15  -3.21405841119110E+09  -1.71309912245153E-15
      6.23550734127392E+01
      1.00000000000000E+01   0.00000000000000E+00  -3.21405841119110E+09  -1.71309912805525E-15  -4.09259047866855E-03
      1.71309912134243E-15  -4.09259047866931E-03   1.71309912799904E-15  -3.21405841119110E+09  -1.71309912117779E-15
      1.12533558260076E+02
      1.00000000000000E+01   0.00000000000000E+00  -3.21405841119110E+09  -1.71309912602720E-15  -4.09259047866829E-03
      1.71309911914356E-15  -4.09259047866905E-03   1.71309912597466E-15  -3.21405841119110E+09  -1.71309911902522E-15
      2.03091762090474E+02
      1.00000000000000E+01   0.00000000000000E+00  -3.21405841119110E+09  -1.71309911942806E-15  -4.09259047866824E-03
      1.71309911288813E-15  -4.09259047866901E-03   1.71309911937502E-15  -3.21405841119110E+09  -1.71309911260513E-15
      3.66524123707963E+02
      1.00000000000000E+01   0.00000000000000E+00  -3.21405841119110E+09  -1.71309909793239E-15  -4.09259047866805E-03
      1.71309909204103E-15  -4.09259047866880E-03   1.71309909789274E-15  -3.21405841119110E+09  -1.71309909178301E-15
      6.61474064123015E+02
      1.00000000000000E+01   0.00000000000000E+00  -3.21405841119110E+09  -1.71309902790488E-15  -4.09259047866683E-03
      1.71309902190641E-15  -4.09259047866759E-03   1.71309902785065E-15  -3.21405841119110E+09  -1.71309902177104E-15
      1.19377664171444E+03
      1.00000000000000E+01   0.00000000000000E+00  -3.21405841119110E+09  -1.71309879984236E-15  -4.09259047866196E-03
      1.71309879445406E-15  -4.09259047866271E-03   1.71309879979937E-15  -3.21405841119110E+09  -1.71309879401458E-15
      2.15443469003188E+03
      1.00000000000000E+01   0.00000000000000E+00  -3.21405841119110E+09  -1.71309805701686E-15  -4.09259047864832E-03
      1.71309805249561E-15  -4.09259047864905E-03   1.71309805695699E-15  -3.21405841119110E+09  -1.71309805263424E-15
      3.88815518030809E+03
      1.00000000000000E+01   0.00000000000000E+00  -3.21405841119110E+09  -1.71309563761805E-15  -4.09259047860206E-03
      1.71309562930078E-15  -4.09259047860288E-03   1.71309563756944E-15  -3.21405841119110E+09  -1.71309562936902E-15
      7.01703828670382E+03
      1.00000000000000E+01   0.00000000000000E+00  -3.21405841119110E+09  -1.71308775763211E-15  -4.09259047845408E-03
      1.71308774834766E-15  -4.09259047845490E-03   1.71308775760843E-15  -3.21405841119110E+09  -1.71308774850431E-15
      1.26638017346740E+04
      1.00000000000000E+01   0.00000000000000E+00  -3.21405841119110E+09  -1.71306209270256E-15  -4.09259047796466E-03
      1.71306208714706E-15  -4.09259047796546E-03   1.71306209264547E-15  -3.21405841119110E+09  -1.71306208716447E-15
      2.28546386413499E+04
      1.00000000000000E+01   0.00000000000000E+00  -3.21405841119110E+09  -1.71297850591454E-15  -4.09259047638185E-03
      1.71297849630055E-15  -4.09259047638267E-03   1.71297850589164E-15  -3.21405841119110E+09  -1.71297849589757E-15
      4.12462638290135E+04
      1.00000000000000E+01   0.00000000000000E+00  -3.21405841119110E+09  -1.71270630805630E-15  -4.09259047121756E-03
      1.71270628956544E-15  -4.09259047121854E-03   1.71270630800887E-15  -3.21405841119110E+09  -1.71270628938657E-15
      7.44380301325169E+04
      1.00000000000000E+01   0.00000000000000E+00  -3.21405841119110E+09  -1.71182024235361E-15  -4.09259045441159E-03
      1.71182022935395E-15  -4.09259045441217E-03   1.71182024236483E-15  -3.21405841119110E+09  -1.71182022931603E-15
      1.34339933259890E+05
      1.00000000000000E+01   0.00000000000000E+00  -3.21405841119110E+09  -1.70893947675575E-15  -4.09259039977494E-03
      1.70893946661801E-15  -4.09259039977566E-03   1.70893947669994E-15  -3.21405841119110E+09  -1.70893946588449E-15
      2.42446201708233E+05
      1.00000000000000E+01   0.00000000000000E+00  -3.21405841119110E+09  -1.69961125406358E-15  -4.09259022285716E-03
      1.69961124278291E-15  -4.09259022285792E-03   1.69961125391564E-15  -3.21405841119110E+09  -1.69961124261043E-15
      4.37547937507419E+05
      1.00000000000000E+01   0.00000000000000E+00  -3.21405841119110E+09  -1.66979552935598E-15  -4.09258965738223E-03
      1.66979552526247E-15  -4.09258965738295E-03   1.66979552920060E-15  -3.21405841119110E+09  -1.66979552476472E-15
      7.89652286849972E+05
      1.00000000000000E+01   0.00000000000000E+00  -3.21405841119110E+09  -1.57832062173922E-15  -4.09258792246987E-03
      1.57832061388100E-15  -4.09258792247020E-03   1.57832062175551E-15  -3.21405841119110E+09  -1.57832061372050E-15
      1.42510267030300E+06
      1.00000000000000E+01   0.00000000000000E+00  -3.21405841119110E+09  -1.32958349872158E-15  -4.09258320480308E-03
      1.32958349279097E-15  -4.09258320480373E-03   1.32958349855959E-15  -3.21405841119110E+09  -1.32958349265917E-15
      2.57191380905934E+06
      1.00000000000000E+01   0.00000000000000E+00  -3.21405841119110E+09  -8.28136246624992E-16  -4.09257369290064E-03
      8.28136237668524E-16  -4.09257369290113E-03   8.28136246554221E-16  -3.21405841119110E+09  -8.28136237402301E-16
      4.64158883361278E+06
      1.00000000000000E+01   0.00000000000000E+00  -3.21405841119110E+09  -2.34592417924541E-16  -4.09256242773284E-03
      2.34592419032587E-16  -4.09256242773284E-03   2.34592417941197E-16  -3.21405841119110E+09  -2.34592418947548E-16
      8.37677640068293E+06
      1.00000000000000E+01   0.00000000000000E+00  -3.21405841119110E+09   1.48910050154402E-16  -4.09255512433812E-03
     -1.48910049156337E-16  -4.09255512433819E-03  -1.48910050172093E-16  -3.21405841119110E+09   1.48910049174957E-16
      1.51177507061567E+07
      1.00000000000000E+01   0.00000000000000E+00  -3.21405841119110E+09   3.10319896747333E-16  -4.09255197458099E-03
     -3.10319896389528E-16  -4.09255197458146E-03  -3.10319896778126E-16  -3.21405841119110E+09   3.10319896435355E-16
      2.72833337648676E+07
      1.00000000000000E+01   0.00000000000000E+00  -3.21405841119110E+09   3.66254512133759E-16  -4.09255071534721E-03
     -3.66254512098795E-16  -4.09255071534781E-03  -3.66254512160357E-16  -3.21405841119110E+09   3.66254512135349E-16
      4.92388263170673E+07
      1.00000000000000E+01   0.00000000000000E+00  -3.21405841119110E+09   3.84336011439770E-16  -4.09255004376215E-03
     -3.84336011431378E-16  -4.09255004376226E-03  -3.84336011455088E-16  -3.21405841119110E+09   3.84336011455113E-16
      8.88623816274339E+07
      1.00000000000000E+01   0.00000000000000E+00  -3.21405841119110E+09   3.89205070829464E-16  -4.09254861887251E-03
     -3.89205070834176E-16  -4.09254861887275E-03  -3.89205070843504E-16  -3.21405841119110E+09   3.89205070858833E-16
      1.60371874375133E+08
      1.00000000000000E+01   0.00000000000000E+00  -3.21405841119110E+09   3.91754763370079E-16  -4.09254273937523E-03
     -3.91754763387346E-16  -4.09254273937582E-03  -3.91754763387035E-16  -3.21405841119110E+09   3.91754763413376E-16
      2.89426612471675E+08
      1.00000000000000E+01   0.00000000000000E+00  -3.21405841119110E+09   3.96984352860320E-16  -4.09252760732915E-03
     -3.96984352871198E-16  -4.09252760732916E-03  -3.96984352871708E-16  -3.21405841119110E+09   3.96984352893473E-16
      5.22334507426686E+08
      1.00000000000000E+01   0.00000000000000E+00  -3.21405841119110E+09   4.05250738942369E-16  -4.09250228563738E-03
     -4.05250738942904E-16  -4.09250228563737E-03  -4.05250738942604E-16  -3.21405841119110E+09   4.05250738956407E-16
      9.42668455117888E+08
      1.00000000000000E+01   0.00000000000000E+00  -3.21405841119110E+09   4.13054425917638E-16  -4.09247619794656E-03
     -4.13054425912352E-16  -4.09247619794654E-03  -4.13054425911972E-16  -3.21405841119110E+09   4.13054425919986E-16
      1.70125427985259E+09
      1.00000000000000E+01   0.00000000000000E+00  -3.21405841119110E+09   4.18320201219964E-16  -4.09246065170698E-03
     -4.18320201216905E-16  -4.09246065170691E-03  -4.18320201216777E-16  -3.21405841119110E+09   4.18320201222754E-16
      3.07029062975785E+09
      1.00000000000000E+01   0.00000000000000E+00  -3.21405841119110E+09   4.21499098306481E-16  -4.09248447476286E-03
     -4.21499098313926E-16  -4.09248447476326E-03  -4.21499098312250E-16  -3.21405841119110E+09   4.21499098330595E-16
      5.54102033000949E+09
      1.00000000000000E+01   0.00000000000000E+00  -3.21405841119110E+09   4.22733832979750E-16  -4.09264009274908E-03
     -4.22733832964254E-16  -4.09264009274852E-03  -4.22733832965409E-16  -3.21405841119110E+09   4.22733832959809E-16
      1.00000000000000E+10
      1.00000000000000E+01   0.00000000000000E+00  -3.21405841119110E+09   4.21392435891243E-16  -4.09318663965724E-03
     -4.21392435891532E-16  -4.09318663965727E-03  -4.21392435890932E-16  -3.21405841119110E+09   4.21392435899728E-16
}
