DF-ISE text

Info {
  version   = 1.0
  type      = xyplot
  datasets  = [
    "frequency"
    "v(g)" "v(b)" "a(g,g)" "c(g,g)" "a(g,b)"
    "c(g,b)" "a(b,g)" "c(b,g)" "a(b,b)" "c(b,b)" ]
  functions = [
    Frequency
    Voltage Voltage Admittance Capacitance Admittance
    Capacitance Admittance Capacitance Admittance Capacitance ]
}

Data {
      1.00000000000000E+00
      1.00000000000000E+01   0.00000000000000E+00  -3.21405841119157E+09  -7.29498398923504E-16  -3.62449365921358E-03
      7.29498384648112E-16  -3.62449365921374E-03   7.29498398974437E-16  -3.21405841119157E+09  -7.29498384687944E-16
      1.80472176682717E+00
      1.00000000000000E+01   0.00000000000000E+00  -3.21405841119157E+09  -7.29498398922979E-16  -3.62449365921358E-03
      7.29498384647398E-16  -3.62449365921375E-03   7.29498398974953E-16  -3.21405841119157E+09  -7.29498384685776E-16
      3.25702065565978E+00
      1.00000000000000E+01   0.00000000000000E+00  -3.21405841119157E+09  -7.29498398921459E-16  -3.62449365921359E-03
      7.29498384659156E-16  -3.62449365921375E-03   7.29498398973040E-16  -3.21405841119157E+09  -7.29498384697202E-16
      5.87801607227491E+00
      1.00000000000000E+01   0.00000000000000E+00  -3.21405841119157E+09  -7.29498398917385E-16  -3.62449365921359E-03
      7.29498384573130E-16  -3.62449365921374E-03   7.29498398968038E-16  -3.21405841119157E+09  -7.29498384612447E-16
      1.06081835513945E+01
      1.00000000000000E+01   0.00000000000000E+00  -3.21405841119157E+09  -7.29498398898868E-16  -3.62449365921361E-03
      7.29498384650653E-16  -3.62449365921377E-03   7.29498398951488E-16  -3.21405841119157E+09  -7.29498384684088E-16
      1.91448197616996E+01
      1.00000000000000E+01   0.00000000000000E+00  -3.21405841119157E+09  -7.29498398847260E-16  -3.62449365921361E-03
      7.29498384573457E-16  -3.62449365921377E-03   7.29498398896276E-16  -3.21405841119157E+09  -7.29498384609876E-16
      3.45510729459222E+01
      1.00000000000000E+01   0.00000000000000E+00  -3.21405841119157E+09  -7.29498398668981E-16  -3.62449365921359E-03
      7.29498384380422E-16  -3.62449365921375E-03   7.29498398719111E-16  -3.21405841119157E+09  -7.29498384421182E-16
      6.23550734127392E+01
      1.00000000000000E+01   0.00000000000000E+00  -3.21405841119157E+09  -7.29498398091995E-16  -3.62449365921358E-03
      7.29498383633647E-16  -3.62449365921374E-03   7.29498398141572E-16  -3.21405841119157E+09  -7.29498383674875E-16
      1.12533558260076E+02
      1.00000000000000E+01   0.00000000000000E+00  -3.21405841119157E+09  -7.29498396209066E-16  -3.62449365921356E-03
      7.29498381706250E-16  -3.62449365921372E-03   7.29498396259625E-16  -3.21405841119157E+09  -7.29498381752809E-16
      2.03091762090474E+02
      1.00000000000000E+01   0.00000000000000E+00  -3.21405841119157E+09  -7.29498390071148E-16  -3.62449365921335E-03
      7.29498375788431E-16  -3.62449365921352E-03   7.29498390118687E-16  -3.21405841119157E+09  -7.29498375820822E-16
      3.66524123707963E+02
      1.00000000000000E+01   0.00000000000000E+00  -3.21405841119157E+09  -7.29498370082178E-16  -3.62449365921310E-03
      7.29498355554007E-16  -3.62449365921327E-03   7.29498370129875E-16  -3.21405841119157E+09  -7.29498355592480E-16
      6.61474064123015E+02
      1.00000000000000E+01   0.00000000000000E+00  -3.21405841119157E+09  -7.29498304967892E-16  -3.62449365921195E-03
      7.29498290834960E-16  -3.62449365921211E-03   7.29498305020502E-16  -3.21405841119157E+09  -7.29498290884366E-16
      1.19377664171444E+03
      1.00000000000000E+01   0.00000000000000E+00  -3.21405841119157E+09  -7.29498092900868E-16  -3.62449365920828E-03
      7.29498078513653E-16  -3.62449365920844E-03   7.29498092950195E-16  -3.21405841119157E+09  -7.29498078558737E-16
      2.15443469003188E+03
      1.00000000000000E+01   0.00000000000000E+00  -3.21405841119157E+09  -7.29497402185212E-16  -3.62449365919625E-03
      7.29497385840159E-16  -3.62449365919645E-03   7.29497402236636E-16  -3.21405841119157E+09  -7.29497385888195E-16
      3.88815518030809E+03
      1.00000000000000E+01   0.00000000000000E+00  -3.21405841119157E+09  -7.29495152499855E-16  -3.62449365915723E-03
      7.29495135740174E-16  -3.62449365915744E-03   7.29495152550929E-16  -3.21405841119157E+09  -7.29495135787261E-16
      7.01703828670382E+03
      1.00000000000000E+01   0.00000000000000E+00  -3.21405841119157E+09  -7.29487825333980E-16  -3.62449365903005E-03
      7.29487810081749E-16  -3.62449365903023E-03   7.29487825382018E-16  -3.21405841119157E+09  -7.29487810124292E-16
      1.26638017346740E+04
      1.00000000000000E+01   0.00000000000000E+00  -3.21405841119157E+09  -7.29463961023100E-16  -3.62449365861642E-03
      7.29463946278501E-16  -3.62449365861659E-03   7.29463961074389E-16  -3.21405841119157E+09  -7.29463946328453E-16
      2.28546386413499E+04
      1.00000000000000E+01   0.00000000000000E+00  -3.21405841119157E+09  -7.29386239257529E-16  -3.62449365726327E-03
      7.29386223178188E-16  -3.62449365726347E-03   7.29386239320771E-16  -3.21405841119157E+09  -7.29386223234759E-16
      4.12462638290135E+04
      1.00000000000000E+01   0.00000000000000E+00  -3.21405841119157E+09  -7.29133148891897E-16  -3.62449365286628E-03
      7.29133133959236E-16  -3.62449365286643E-03   7.29133148924204E-16  -3.21405841119157E+09  -7.29133133987113E-16
      7.44380301325169E+04
      1.00000000000000E+01   0.00000000000000E+00  -3.21405841119157E+09  -7.28309368344023E-16  -3.62449363853810E-03
      7.28309350842381E-16  -3.62449363853827E-03   7.28309368424014E-16  -3.21405841119157E+09  -7.28309350938615E-16
      1.34339933259890E+05
      1.00000000000000E+01   0.00000000000000E+00  -3.21405841119157E+09  -7.25632016014223E-16  -3.62449359200389E-03
      7.25631996866461E-16  -3.62449359200413E-03   7.25632016057772E-16  -3.21405841119157E+09  -7.25631996918520E-16
      2.42446201708233E+05
      1.00000000000000E+01   0.00000000000000E+00  -3.21405841119157E+09  -7.16972028027097E-16  -3.62449344146041E-03
      7.16972018890568E-16  -3.62449344146047E-03   7.16972028087476E-16  -3.21405841119157E+09  -7.16972018934051E-16
      4.37547937507419E+05
      1.00000000000000E+01   0.00000000000000E+00  -3.21405841119157E+09  -6.89389787294343E-16  -3.62449296198110E-03
      6.89389771367527E-16  -3.62449296198128E-03   6.89389787335551E-16  -3.21405841119157E+09  -6.89389771403956E-16
      7.89652286849972E+05
      1.00000000000000E+01   0.00000000000000E+00  -3.21405841119157E+09  -6.05684336884918E-16  -3.62449150685303E-03
      6.05684322427477E-16  -3.62449150685317E-03   6.05684336922402E-16  -3.21405841119157E+09  -6.05684322460982E-16
      1.42510267030300E+06
      1.00000000000000E+01   0.00000000000000E+00  -3.21405841119157E+09  -3.84842535826654E-16  -3.62448766762049E-03
      3.84842527098665E-16  -3.62448766762051E-03   3.84842535869317E-16  -3.21405841119157E+09  -3.84842527122800E-16
      2.57191380905934E+06
      1.00000000000000E+01   0.00000000000000E+00  -3.21405841119157E+09   3.23987781006074E-17  -3.62448041313517E-03
     -3.23987867282353E-17  -3.62448041313521E-03  -3.23987780559392E-17  -3.21405841119157E+09   3.23987866858793E-17
      4.64158883361278E+06
      1.00000000000000E+01   0.00000000000000E+00  -3.21405841119157E+09   4.83118018684524E-16  -3.62447257163551E-03
     -4.83118019341171E-16  -3.62447257163540E-03  -4.83118018669534E-16  -3.21405841119157E+09   4.83118019332574E-16
      8.37677640068293E+06
      1.00000000000000E+01   0.00000000000000E+00  -3.21405841119157E+09   7.52261070927270E-16  -3.62446786952833E-03
     -7.52261070511996E-16  -3.62446786952824E-03  -7.52261070905545E-16  -3.21405841119157E+09   7.52261070492059E-16
      1.51177507061567E+07
      1.00000000000000E+01   0.00000000000000E+00  -3.21405841119157E+09   8.60666968157364E-16  -3.62446590732001E-03
     -8.60666968150042E-16  -3.62446590731993E-03  -8.60666968148432E-16  -3.21405841119157E+09   8.60666968145583E-16
      2.72833337648676E+07
      1.00000000000000E+01   0.00000000000000E+00  -3.21405841119157E+09   8.97360538636382E-16  -3.62446501886527E-03
     -8.97360538675794E-16  -3.62446501886517E-03  -8.97360538616433E-16  -3.21405841119157E+09   8.97360538662551E-16
      4.92388263170673E+07
      1.00000000000000E+01   0.00000000000000E+00  -3.21405841119157E+09   9.09452490289571E-16  -3.62446402505691E-03
     -9.09452490271417E-16  -3.62446402505676E-03  -9.09452490274164E-16  -3.21405841119157E+09   9.09452490260996E-16
      8.88623816274339E+07
      1.00000000000000E+01   0.00000000000000E+00  -3.21405841119157E+09   9.14560956203062E-16  -3.62446167728815E-03
     -9.14560956167961E-16  -3.62446167728807E-03  -9.14560956166450E-16  -3.21405841119157E+09   9.14560956136480E-16
      1.60371874375133E+08
      1.00000000000000E+01   0.00000000000000E+00  -3.21405841119157E+09   9.19127685127692E-16  -3.62445619407250E-03
     -9.19127685107880E-16  -3.62445619407238E-03  -9.19127685110504E-16  -3.21405841119157E+09   9.19127685097419E-16
      2.89426612471675E+08
      1.00000000000000E+01   0.00000000000000E+00  -3.21405841119157E+09   9.25325549870748E-16  -3.62444638139858E-03
     -9.25325549856500E-16  -3.62444638139840E-03  -9.25325549856470E-16  -3.21405841119157E+09   9.25325549846400E-16
      5.22334507426686E+08
      1.00000000000000E+01   0.00000000000000E+00  -3.21405841119157E+09   9.33394325681922E-16  -3.62443921703647E-03
     -9.33394325671392E-16  -3.62443921703635E-03  -9.33394325671538E-16  -3.21405841119157E+09   9.33394325666275E-16
      9.42668455117888E+08
      1.00000000000000E+01   0.00000000000000E+00  -3.21405841119157E+09   9.40168729711184E-16  -3.62446721756506E-03
     -9.40168729701076E-16  -3.62446721756493E-03  -9.40168729701082E-16  -3.21405841119157E+09   9.40168729696754E-16
      1.70125427985259E+09
      1.00000000000000E+01   0.00000000000000E+00  -3.21405841119157E+09   9.44163995911533E-16  -3.62461806988562E-03
     -9.44163995903888E-16  -3.62461806988551E-03  -9.44163995903680E-16  -3.21405841119157E+09   9.44163995900439E-16
      3.07029062975785E+09
      1.00000000000000E+01   0.00000000000000E+00  -3.21405841119157E+09   9.44592668333477E-16  -3.62517548282683E-03
     -9.44592668320865E-16  -3.62517548282678E-03  -9.44592668320713E-16  -3.21405841119157E+09   9.44592668313082E-16
      5.54102033000949E+09
      1.00000000000000E+01   0.00000000000000E+00  -3.21405841119157E+09   9.37580631263753E-16  -3.62702217261568E-03
     -9.37580631244994E-16  -3.62702217261568E-03  -9.37580631244755E-16  -3.21405841119157E+09   9.37580631230037E-16
      1.00000000000000E+10
      1.00000000000000E+01   0.00000000000000E+00  -3.21405841119156E+09   9.11793765542962E-16  -3.63263946917644E-03
     -9.11793765524356E-16  -3.63263946917628E-03  -9.11793765524274E-16  -3.21405841119156E+09   9.11793765510135E-16
}
