DF-ISE text

Info {
  version   = 1.0
  type      = xyplot
  datasets  = [
    "frequency"
    "v(g)" "v(b)" "a(g,g)" "c(g,g)" "a(g,b)"
    "c(g,b)" "a(b,g)" "c(b,g)" "a(b,b)" "c(b,b)" ]
  functions = [
    Frequency
    Voltage Voltage Admittance Capacitance Admittance
    Capacitance Admittance Capacitance Admittance Capacitance ]
}

Data {
      1.00000000000000E+00
      1.00000000000000E+01   0.00000000000000E+00  -3.21405841119121E+09  -7.20026902973545E-16  -3.98326292441217E-03
      7.20026907624110E-16  -3.98326292441179E-03   7.20026902780947E-16  -3.21405841119121E+09  -7.20026907367275E-16
      1.80472176682717E+00
      1.00000000000000E+01   0.00000000000000E+00  -3.21405841119121E+09  -7.20026902970721E-16  -3.98326292441217E-03
      7.20026907764146E-16  -3.98326292441179E-03   7.20026902780434E-16  -3.21405841119121E+09  -7.20026907505908E-16
      3.25702065565978E+00
      1.00000000000000E+01   0.00000000000000E+00  -3.21405841119121E+09  -7.20026902970347E-16  -3.98326292441216E-03
      7.20026907729044E-16  -3.98326292441179E-03   7.20026902779628E-16  -3.21405841119121E+09  -7.20026907452304E-16
      5.87801607227491E+00
      1.00000000000000E+01   0.00000000000000E+00  -3.21405841119121E+09  -7.20026902969121E-16  -3.98326292441217E-03
      7.20026907587834E-16  -3.98326292441179E-03   7.20026902776000E-16  -3.21405841119121E+09  -7.20026907472685E-16
      1.06081835513945E+01
      1.00000000000000E+01   0.00000000000000E+00  -3.21405841119121E+09  -7.20026902956871E-16  -3.98326292441215E-03
      7.20026907480387E-16  -3.98326292441178E-03   7.20026902764331E-16  -3.21405841119121E+09  -7.20026907539050E-16
      1.91448197616996E+01
      1.00000000000000E+01   0.00000000000000E+00  -3.21405841119121E+09  -7.20026902922571E-16  -3.98326292441218E-03
      7.20026907583586E-16  -3.98326292441181E-03   7.20026902730145E-16  -3.21405841119121E+09  -7.20026907403773E-16
      3.45510729459222E+01
      1.00000000000000E+01   0.00000000000000E+00  -3.21405841119121E+09  -7.20026902801177E-16  -3.98326292441218E-03
      7.20026907483040E-16  -3.98326292441180E-03   7.20026902612157E-16  -3.21405841119121E+09  -7.20026907258868E-16
      6.23550734127392E+01
      1.00000000000000E+01   0.00000000000000E+00  -3.21405841119121E+09  -7.20026902415344E-16  -3.98326292441218E-03
      7.20026907322102E-16  -3.98326292441180E-03   7.20026902224209E-16  -3.21405841119121E+09  -7.20026906990600E-16
      1.12533558260076E+02
      1.00000000000000E+01   0.00000000000000E+00  -3.21405841119121E+09  -7.20026901158459E-16  -3.98326292441206E-03
      7.20026905598526E-16  -3.98326292441169E-03   7.20026900965165E-16  -3.21405841119121E+09  -7.20026905461303E-16
      2.03091762090474E+02
      1.00000000000000E+01   0.00000000000000E+00  -3.21405841119121E+09  -7.20026897068666E-16  -3.98326292441215E-03
      7.20026901872419E-16  -3.98326292441178E-03   7.20026896872097E-16  -3.21405841119121E+09  -7.20026901882502E-16
      3.66524123707963E+02
      1.00000000000000E+01   0.00000000000000E+00  -3.21405841119121E+09  -7.20026883746484E-16  -3.98326292441209E-03
      7.20026888587556E-16  -3.98326292441172E-03   7.20026883545364E-16  -3.21405841119121E+09  -7.20026888230251E-16
      6.61474064123015E+02
      1.00000000000000E+01   0.00000000000000E+00  -3.21405841119121E+09  -7.20026840351917E-16  -3.98326292441079E-03
      7.20026845453900E-16  -3.98326292441040E-03   7.20026840158270E-16  -3.21405841119121E+09  -7.20026845227659E-16
      1.19377664171444E+03
      1.00000000000000E+01   0.00000000000000E+00  -3.21405841119121E+09  -7.20026698997915E-16  -3.98326292440812E-03
      7.20026705211837E-16  -3.98326292440771E-03   7.20026698811852E-16  -3.21405841119121E+09  -7.20026705034213E-16
      2.15443469003188E+03
      1.00000000000000E+01   0.00000000000000E+00  -3.21405841119121E+09  -7.20026238609317E-16  -3.98326292439933E-03
      7.20026245169609E-16  -3.98326292439891E-03   7.20026238420511E-16  -3.21405841119121E+09  -7.20026245033051E-16
      3.88815518030809E+03
      1.00000000000000E+01   0.00000000000000E+00  -3.21405841119121E+09  -7.20024739129530E-16  -3.98326292437033E-03
      7.20024743103487E-16  -3.98326292436997E-03   7.20024738931521E-16  -3.21405841119121E+09  -7.20024742945222E-16
      7.01703828670382E+03
      1.00000000000000E+01   0.00000000000000E+00  -3.21405841119121E+09  -7.20019855321056E-16  -3.98326292427593E-03
      7.20019861035278E-16  -3.98326292427554E-03   7.20019855131953E-16  -3.21405841119121E+09  -7.20019860676467E-16
      1.26638017346740E+04
      1.00000000000000E+01   0.00000000000000E+00  -3.21405841119121E+09  -7.20003948880204E-16  -3.98326292396739E-03
      7.20003950431595E-16  -3.98326292396708E-03   7.20003948656838E-16  -3.21405841119121E+09  -7.20003950063224E-16
      2.28546386413499E+04
      1.00000000000000E+01   0.00000000000000E+00  -3.21405841119121E+09  -7.19952143895954E-16  -3.98326292296873E-03
      7.19952148013641E-16  -3.98326292296841E-03   7.19952143684528E-16  -3.21405841119121E+09  -7.19952148001062E-16
      4.12462638290135E+04
      1.00000000000000E+01   0.00000000000000E+00  -3.21405841119121E+09  -7.19783441400797E-16  -3.98326291970602E-03
      7.19783441109369E-16  -3.98326291970577E-03   7.19783441154881E-16  -3.21405841119121E+09  -7.19783441054609E-16
      7.44380301325169E+04
      1.00000000000000E+01   0.00000000000000E+00  -3.21405841119121E+09  -7.19234264834371E-16  -3.98326290907856E-03
      7.19234265400052E-16  -3.98326290907811E-03   7.19234264652649E-16  -3.21405841119121E+09  -7.19234264733925E-16
      1.34339933259890E+05
      1.00000000000000E+01   0.00000000000000E+00  -3.21405841119121E+09  -7.17448667179156E-16  -3.98326287455124E-03
      7.17448663766287E-16  -3.98326287455096E-03   7.17448666951896E-16  -3.21405841119121E+09  -7.17448663563515E-16
      2.42446201708233E+05
      1.00000000000000E+01   0.00000000000000E+00  -3.21405841119121E+09  -7.11665432013623E-16  -3.98326276271870E-03
      7.11665424951797E-16  -3.98326276271856E-03   7.11665431835797E-16  -3.21405841119121E+09  -7.11665424654016E-16
      4.37547937507419E+05
      1.00000000000000E+01   0.00000000000000E+00  -3.21405841119121E+09  -6.93167379045288E-16  -3.98326240500638E-03
      6.93167380245623E-16  -3.98326240500608E-03   6.93167379000893E-16  -3.21405841119121E+09  -6.93167380362400E-16
      7.89652286849972E+05
      1.00000000000000E+01   0.00000000000000E+00  -3.21405841119121E+09  -6.36289942137259E-16  -3.98326130508348E-03
      6.36289940201467E-16  -3.98326130508316E-03   6.36289941953042E-16  -3.21405841119121E+09  -6.36289939879223E-16
      1.42510267030300E+06
      1.00000000000000E+01   0.00000000000000E+00  -3.21405841119121E+09  -4.80668040874042E-16  -3.98325829554047E-03
      4.80668034996037E-16  -3.98325829554038E-03   4.80668040732292E-16  -3.21405841119121E+09  -4.80668034904078E-16
      2.57191380905934E+06
      1.00000000000000E+01   0.00000000000000E+00  -3.21405841119121E+09  -1.62598257117196E-16  -3.98325214380338E-03
      1.62598256247656E-16  -3.98325214380328E-03   1.62598257051031E-16  -3.21405841119121E+09  -1.62598256331271E-16
      4.64158883361278E+06
      1.00000000000000E+01   0.00000000000000E+00  -3.21405841119121E+09   2.21565841938868E-16  -3.98324471026750E-03
     -2.21565837324943E-16  -3.98324471026722E-03  -2.21565841945518E-16  -3.21405841119121E+09   2.21565837309274E-16
      8.37677640068293E+06
      1.00000000000000E+01   0.00000000000000E+00  -3.21405841119121E+09   4.74285119318128E-16  -3.98323980585208E-03
     -4.74285117528960E-16  -3.98323980585187E-03  -4.74285119365765E-16  -3.21405841119121E+09   4.74285117577012E-16
      1.51177507061567E+07
      1.00000000000000E+01   0.00000000000000E+00  -3.21405841119121E+09   5.81579623251189E-16  -3.98323767311894E-03
     -5.81579622824253E-16  -3.98323767311872E-03  -5.81579623271388E-16  -3.21405841119121E+09   5.81579622816061E-16
      2.72833337648676E+07
      1.00000000000000E+01   0.00000000000000E+00  -3.21405841119121E+09   6.18629402196345E-16  -3.98323677084232E-03
     -6.18629402196360E-16  -3.98323677084229E-03  -6.18629402211481E-16  -3.21405841119121E+09   6.18629402224700E-16
      4.92388263170673E+07
      1.00000000000000E+01   0.00000000000000E+00  -3.21405841119121E+09   6.30828689228552E-16  -3.98323596330733E-03
     -6.30828689163343E-16  -3.98323596330712E-03  -6.30828689221041E-16  -3.21405841119121E+09   6.30828689161504E-16
      8.88623816274339E+07
      1.00000000000000E+01   0.00000000000000E+00  -3.21405841119121E+09   6.35653293432322E-16  -3.98323428884096E-03
     -6.35653293424541E-16  -3.98323428884079E-03  -6.35653293438866E-16  -3.21405841119121E+09   6.35653293436964E-16
      1.60371874375133E+08
      1.00000000000000E+01   0.00000000000000E+00  -3.21405841119121E+09   6.39061054620409E-16  -3.98323062162253E-03
     -6.39061054648719E-16  -3.98323062162246E-03  -6.39061054654541E-16  -3.21405841119121E+09   6.39061054691147E-16
      2.89426612471675E+08
      1.00000000000000E+01   0.00000000000000E+00  -3.21405841119121E+09   6.42843557252508E-16  -3.98322330922593E-03
     -6.42843557285031E-16  -3.98322330922587E-03  -6.42843557285174E-16  -3.21405841119121E+09   6.42843557325489E-16
      5.22334507426686E+08
      1.00000000000000E+01   0.00000000000000E+00  -3.21405841119121E+09   6.48315792100394E-16  -3.98321396153131E-03
     -6.48315792128231E-16  -3.98321396153128E-03  -6.48315792128643E-16  -3.21405841119121E+09   6.48315792161475E-16
      9.42668455117888E+08
      1.00000000000000E+01   0.00000000000000E+00  -3.21405841119121E+09   6.53517891705726E-16  -3.98322169166738E-03
     -6.53517891757669E-16  -3.98322169166748E-03  -6.53517891755786E-16  -3.21405841119121E+09   6.53517891810658E-16
      1.70125427985259E+09
      1.00000000000000E+01   0.00000000000000E+00  -3.21405841119121E+09   6.56662022684650E-16  -3.98329476796670E-03
     -6.56662022740974E-16  -3.98329476796681E-03  -6.56662022739414E-16  -3.21405841119121E+09   6.56662022799490E-16
      3.07029062975785E+09
      1.00000000000000E+01   0.00000000000000E+00  -3.21405841119121E+09   6.57282018489080E-16  -3.98358074038108E-03
     -6.57282018522460E-16  -3.98358074038100E-03  -6.57282018521650E-16  -3.21405841119121E+09   6.57282018560913E-16
      5.54102033000949E+09
      1.00000000000000E+01   0.00000000000000E+00  -3.21405841119121E+09   6.53241444828740E-16  -3.98453358008780E-03
     -6.53241444848425E-16  -3.98453358008796E-03  -6.53241444847909E-16  -3.21405841119121E+09   6.53241444874789E-16
      1.00000000000000E+10
      1.00000000000000E+01   0.00000000000000E+00  -3.21405841119120E+09   6.38192985270164E-16  -3.98736645356415E-03
     -6.38192985300359E-16  -3.98736645356429E-03  -6.38192985299612E-16  -3.21405841119120E+09   6.38192985334211E-16
}
