DF-ISE text

Info {
  version   = 1.0
  type      = xyplot
  datasets  = [
    "frequency"
    "v(g)" "v(b)" "a(g,g)" "c(g,g)" "a(g,b)"
    "c(g,b)" "a(b,g)" "c(b,g)" "a(b,b)" "c(b,b)" ]
  functions = [
    Frequency
    Voltage Voltage Admittance Capacitance Admittance
    Capacitance Admittance Capacitance Admittance Capacitance ]
}

Data {
      1.00000000000000E+00
      1.00000000000000E+01   0.00000000000000E+00  -3.21405841118538E+09   1.94955654783962E-16  -9.81558822955589E-03
     -1.94955654787428E-16  -9.81558822955574E-03  -1.94955654787381E-16  -3.21405841118538E+09   1.94955654788503E-16
      1.80472176682717E+00
      1.00000000000000E+01   0.00000000000000E+00  -3.21405841118538E+09   1.94955654793097E-16  -9.81558822955589E-03
     -1.94955654787453E-16  -9.81558822955574E-03  -1.94955654787412E-16  -3.21405841118538E+09   1.94955654788469E-16
      3.25702065565978E+00
      1.00000000000000E+01   0.00000000000000E+00  -3.21405841118538E+09   1.94955654814076E-16  -9.81558822955589E-03
     -1.94955654787431E-16  -9.81558822955574E-03  -1.94955654787389E-16  -3.21405841118538E+09   1.94955654788832E-16
      5.87801607227491E+00
      1.00000000000000E+01   0.00000000000000E+00  -3.21405841118538E+09   1.94955654828532E-16  -9.81558822955589E-03
     -1.94955654787420E-16  -9.81558822955574E-03  -1.94955654787387E-16  -3.21405841118538E+09   1.94955654788709E-16
      1.06081835513945E+01
      1.00000000000000E+01   0.00000000000000E+00  -3.21405841118538E+09   1.94955654774449E-16  -9.81558822955589E-03
     -1.94955654787426E-16  -9.81558822955574E-03  -1.94955654787388E-16  -3.21405841118538E+09   1.94955654789117E-16
      1.91448197616996E+01
      1.00000000000000E+01   0.00000000000000E+00  -3.21405841118538E+09   1.94955654739963E-16  -9.81558822955589E-03
     -1.94955654787440E-16  -9.81558822955574E-03  -1.94955654787386E-16  -3.21405841118538E+09   1.94955654788400E-16
      3.45510729459222E+01
      1.00000000000000E+01   0.00000000000000E+00  -3.21405841118538E+09   1.94955654774732E-16  -9.81558822955589E-03
     -1.94955654787428E-16  -9.81558822955574E-03  -1.94955654787395E-16  -3.21405841118538E+09   1.94955654788584E-16
      6.23550734127392E+01
      1.00000000000000E+01   0.00000000000000E+00  -3.21405841118538E+09   1.94955654782750E-16  -9.81558822955589E-03
     -1.94955654787437E-16  -9.81558822955574E-03  -1.94955654787399E-16  -3.21405841118538E+09   1.94955654788737E-16
      1.12533558260076E+02
      1.00000000000000E+01   0.00000000000000E+00  -3.21405841118538E+09   1.94955654787612E-16  -9.81558822955589E-03
     -1.94955654787478E-16  -9.81558822955574E-03  -1.94955654787441E-16  -3.21405841118538E+09   1.94955654788306E-16
      2.03091762090474E+02
      1.00000000000000E+01   0.00000000000000E+00  -3.21405841118538E+09   1.94955654807478E-16  -9.81558822955589E-03
     -1.94955654787410E-16  -9.81558822955574E-03  -1.94955654787375E-16  -3.21405841118538E+09   1.94955654788787E-16
      3.66524123707963E+02
      1.00000000000000E+01   0.00000000000000E+00  -3.21405841118538E+09   1.94955654775350E-16  -9.81558822955589E-03
     -1.94955654787400E-16  -9.81558822955575E-03  -1.94955654787361E-16  -3.21405841118538E+09   1.94955654788717E-16
      6.61474064123015E+02
      1.00000000000000E+01   0.00000000000000E+00  -3.21405841118538E+09   1.94955654788654E-16  -9.81558822955589E-03
     -1.94955654787381E-16  -9.81558822955575E-03  -1.94955654787344E-16  -3.21405841118538E+09   1.94955654788892E-16
      1.19377664171444E+03
      1.00000000000000E+01   0.00000000000000E+00  -3.21405841118538E+09   1.94955654803547E-16  -9.81558822955589E-03
     -1.94955654787449E-16  -9.81558822955575E-03  -1.94955654787398E-16  -3.21405841118538E+09   1.94955654789014E-16
      2.15443469003188E+03
      1.00000000000000E+01   0.00000000000000E+00  -3.21405841118538E+09   1.94955654786890E-16  -9.81558822955590E-03
     -1.94955654787396E-16  -9.81558822955576E-03  -1.94955654787356E-16  -3.21405841118538E+09   1.94955654789149E-16
      3.88815518030809E+03
      1.00000000000000E+01   0.00000000000000E+00  -3.21405841118538E+09   1.94955654778894E-16  -9.81558822955595E-03
     -1.94955654787494E-16  -9.81558822955580E-03  -1.94955654787453E-16  -3.21405841118538E+09   1.94955654788651E-16
      7.01703828670382E+03
      1.00000000000000E+01   0.00000000000000E+00  -3.21405841118538E+09   1.94955654765423E-16  -9.81558822955586E-03
     -1.94955654787603E-16  -9.81558822955569E-03  -1.94955654787564E-16  -3.21405841118538E+09   1.94955654787478E-16
      1.26638017346740E+04
      1.00000000000000E+01   0.00000000000000E+00  -3.21405841118538E+09   1.94955654792666E-16  -9.81558822955621E-03
     -1.94955654787683E-16  -9.81558822955609E-03  -1.94955654787656E-16  -3.21405841118538E+09   1.94955654787943E-16
      2.28546386413499E+04
      1.00000000000000E+01   0.00000000000000E+00  -3.21405841118538E+09   1.94955654775140E-16  -9.81558822955351E-03
     -1.94955654787307E-16  -9.81558822955333E-03  -1.94955654787262E-16  -3.21405841118538E+09   1.94955654786490E-16
      4.12462638290135E+04
      1.00000000000000E+01   0.00000000000000E+00  -3.21405841118538E+09   1.94955654751544E-16  -9.81558822955781E-03
     -1.94955654789076E-16  -9.81558822955768E-03  -1.94955654789103E-16  -3.21405841118538E+09   1.94955654785184E-16
      7.44380301325169E+04
      1.00000000000000E+01   0.00000000000000E+00  -3.21405841118538E+09   1.94955654787066E-16  -9.81558822954923E-03
     -1.94955654785885E-16  -9.81558822954855E-03  -1.94955654785711E-16  -3.21405841118538E+09   1.94955654776223E-16
      1.34339933259890E+05
      1.00000000000000E+01   0.00000000000000E+00  -3.21405841118538E+09   1.94955654786670E-16  -9.81558822956012E-03
     -1.94955654787560E-16  -9.81558822955996E-03  -1.94955654787504E-16  -3.21405841118538E+09   1.94955654784678E-16
      2.42446201708233E+05
      1.00000000000000E+01   0.00000000000000E+00  -3.21405841118538E+09   1.94955654776266E-16  -9.81558822955580E-03
     -1.94955654788168E-16  -9.81558822955564E-03  -1.94955654788126E-16  -3.21405841118538E+09   1.94955654788292E-16
      4.37547937507419E+05
      1.00000000000000E+01   0.00000000000000E+00  -3.21405841118538E+09   1.94955654820839E-16  -9.81558822955741E-03
     -1.94955654788173E-16  -9.81558822955738E-03  -1.94955654788178E-16  -3.21405841118538E+09   1.94955654792820E-16
      7.89652286849972E+05
      1.00000000000000E+01   0.00000000000000E+00  -3.21405841118538E+09   1.94955654762241E-16  -9.81558822955428E-03
     -1.94955654786154E-16  -9.81558822955397E-03  -1.94955654786015E-16  -3.21405841118538E+09   1.94955654787502E-16
      1.42510267030300E+06
      1.00000000000000E+01   0.00000000000000E+00  -3.21405841118538E+09   1.94955654753684E-16  -9.81558822955378E-03
     -1.94955654787476E-16  -9.81558822955363E-03  -1.94955654787439E-16  -3.21405841118538E+09   1.94955654788058E-16
      2.57191380905934E+06
      1.00000000000000E+01   0.00000000000000E+00  -3.21405841118538E+09   1.94955654779835E-16  -9.81558822955513E-03
     -1.94955654787494E-16  -9.81558822955495E-03  -1.94955654787445E-16  -3.21405841118538E+09   1.94955654786205E-16
      4.64158883361278E+06
      1.00000000000000E+01   0.00000000000000E+00  -3.21405841118538E+09   1.94955654812082E-16  -9.81558822954830E-03
     -1.94955654789264E-16  -9.81558822954823E-03  -1.94955654789313E-16  -3.21405841118538E+09   1.94955654789982E-16
      8.37677640068293E+06
      1.00000000000000E+01   0.00000000000000E+00  -3.21405841118538E+09   1.94955654834532E-16  -9.81558822952895E-03
     -1.94955654790485E-16  -9.81558822952881E-03  -1.94955654790388E-16  -3.21405841118538E+09   1.94955654792626E-16
      1.51177507061567E+07
      1.00000000000000E+01   0.00000000000000E+00  -3.21405841118538E+09   1.94955654828171E-16  -9.81558822946648E-03
     -1.94955654798757E-16  -9.81558822946637E-03  -1.94955654798663E-16  -3.21405841118538E+09   1.94955654800565E-16
      2.72833337648676E+07
      1.00000000000000E+01   0.00000000000000E+00  -3.21405841118538E+09   1.94955654829753E-16  -9.81558822925972E-03
     -1.94955654824831E-16  -9.81558822925950E-03  -1.94955654824763E-16  -3.21405841118538E+09   1.94955654825589E-16
      4.92388263170673E+07
      1.00000000000000E+01   0.00000000000000E+00  -3.21405841118538E+09   1.94955654892515E-16  -9.81558822858020E-03
     -1.94955654908153E-16  -9.81558822858005E-03  -1.94955654908113E-16  -3.21405841118538E+09   1.94955654908122E-16
      8.88623816274339E+07
      1.00000000000000E+01   0.00000000000000E+00  -3.21405841118538E+09   1.94955655188328E-16  -9.81558822632572E-03
     -1.94955655179890E-16  -9.81558822632561E-03  -1.94955655179825E-16  -3.21405841118538E+09   1.94955655179773E-16
      1.60371874375133E+08
      1.00000000000000E+01   0.00000000000000E+00  -3.21405841118538E+09   1.94955656082553E-16  -9.81558821906972E-03
     -1.94955656066215E-16  -9.81558821906954E-03  -1.94955656066199E-16  -3.21405841118538E+09   1.94955656065827E-16
      2.89426612471675E+08
      1.00000000000000E+01   0.00000000000000E+00  -3.21405841118538E+09   1.94955658935687E-16  -9.81558819535028E-03
     -1.94955658952250E-16  -9.81558819535006E-03  -1.94955658952286E-16  -3.21405841118538E+09   1.94955658951798E-16
      5.22334507426686E+08
      1.00000000000000E+01   0.00000000000000E+00  -3.21405841118538E+09   1.94955668345398E-16  -9.81558811809679E-03
     -1.94955668350457E-16  -9.81558811809659E-03  -1.94955668350492E-16  -3.21405841118538E+09   1.94955668351489E-16
      9.42668455117888E+08
      1.00000000000000E+01   0.00000000000000E+00  -3.21405841118538E+09   1.94955698976769E-16  -9.81558786648178E-03
     -1.94955698963785E-16  -9.81558786648159E-03  -1.94955698963738E-16  -3.21405841118538E+09   1.94955698965559E-16
      1.70125427985259E+09
      1.00000000000000E+01   0.00000000000000E+00  -3.21405841118538E+09   1.94955798676444E-16  -9.81558704703441E-03
     -1.94955798696425E-16  -9.81558704703414E-03  -1.94955798696455E-16  -3.21405841118538E+09   1.94955798696688E-16
      3.07029062975785E+09
      1.00000000000000E+01   0.00000000000000E+00  -3.21405841118538E+09   1.94956123739709E-16  -9.81558437790640E-03
     -1.94956123760572E-16  -9.81558437790611E-03  -1.94956123760509E-16  -3.21405841118538E+09   1.94956123761544E-16
      5.54102033000949E+09
      1.00000000000000E+01   0.00000000000000E+00  -3.21405841118538E+09   1.94957184790570E-16  -9.81557568348849E-03
     -1.94957184761465E-16  -9.81557568348820E-03  -1.94957184761414E-16  -3.21405841118538E+09   1.94957184762645E-16
      1.00000000000000E+10
      1.00000000000000E+01   0.00000000000000E+00  -3.21405841118538E+09   1.94960658281039E-16  -9.81554735538638E-03
     -1.94960658311407E-16  -9.81554735538612E-03  -1.94960658311385E-16  -3.21405841118538E+09   1.94960658312175E-16
}
