DF-ISE text

Info {
  version   = 1.0
  type      = xyplot
  datasets  = [
    "frequency"
    "v(g)" "v(b)" "a(g,g)" "c(g,g)" "a(g,b)"
    "c(g,b)" "a(b,g)" "c(b,g)" "a(b,b)" "c(b,b)" ]
  functions = [
    Frequency
    Voltage Voltage Admittance Capacitance Admittance
    Capacitance Admittance Capacitance Admittance Capacitance ]
}

Data {
      1.00000000000000E+00
      1.00000000000000E+01   0.00000000000000E+00  -3.21405841119161E+09  -5.09358964543928E-15  -3.58318626588986E-03
      5.09358962814433E-15  -3.58318626589017E-03   5.09358964549996E-15  -3.21405841119161E+09  -5.09358962818846E-15
      1.80472176682717E+00
      1.00000000000000E+01   0.00000000000000E+00  -3.21405841119161E+09  -5.09358964543477E-15  -3.58318626588986E-03
      5.09358962814749E-15  -3.58318626589018E-03   5.09358964549523E-15  -3.21405841119161E+09  -5.09358962819442E-15
      3.25702065565978E+00
      1.00000000000000E+01   0.00000000000000E+00  -3.21405841119161E+09  -5.09358964542696E-15  -3.58318626588986E-03
      5.09358962814003E-15  -3.58318626589018E-03   5.09358964548959E-15  -3.21405841119161E+09  -5.09358962818655E-15
      5.87801607227491E+00
      1.00000000000000E+01   0.00000000000000E+00  -3.21405841119161E+09  -5.09358964540936E-15  -3.58318626588985E-03
      5.09358962825583E-15  -3.58318626589017E-03   5.09358964547217E-15  -3.21405841119161E+09  -5.09358962830069E-15
      1.06081835513945E+01
      1.00000000000000E+01   0.00000000000000E+00  -3.21405841119161E+09  -5.09358964534552E-15  -3.58318626588986E-03
      5.09358962792380E-15  -3.58318626589018E-03   5.09358964540762E-15  -3.21405841119161E+09  -5.09358962796976E-15
      1.91448197616996E+01
      1.00000000000000E+01   0.00000000000000E+00  -3.21405841119161E+09  -5.09358964515734E-15  -3.58318626588989E-03
      5.09358962812996E-15  -3.58318626589020E-03   5.09358964521952E-15  -3.21405841119161E+09  -5.09358962817641E-15
      3.45510729459222E+01
      1.00000000000000E+01   0.00000000000000E+00  -3.21405841119161E+09  -5.09358964451239E-15  -3.58318626588993E-03
      5.09358962726289E-15  -3.58318626589025E-03   5.09358964457423E-15  -3.21405841119161E+09  -5.09358962730383E-15
      6.23550734127392E+01
      1.00000000000000E+01   0.00000000000000E+00  -3.21405841119161E+09  -5.09358964246378E-15  -3.58318626588993E-03
      5.09358962572125E-15  -3.58318626589023E-03   5.09358964252077E-15  -3.21405841119161E+09  -5.09358962576622E-15
      1.12533558260076E+02
      1.00000000000000E+01   0.00000000000000E+00  -3.21405841119161E+09  -5.09358963575536E-15  -3.58318626588981E-03
      5.09358961885949E-15  -3.58318626589013E-03   5.09358963581161E-15  -3.21405841119161E+09  -5.09358961890853E-15
      2.03091762090474E+02
      1.00000000000000E+01   0.00000000000000E+00  -3.21405841119161E+09  -5.09358961394662E-15  -3.58318626588934E-03
      5.09358959710797E-15  -3.58318626588965E-03   5.09358961400786E-15  -3.21405841119161E+09  -5.09358959715690E-15
      3.66524123707963E+02
      1.00000000000000E+01   0.00000000000000E+00  -3.21405841119161E+09  -5.09358954288009E-15  -3.58318626588820E-03
      5.09358952607378E-15  -3.58318626588850E-03   5.09358954293867E-15  -3.21405841119161E+09  -5.09358952612048E-15
      6.61474064123015E+02
      1.00000000000000E+01   0.00000000000000E+00  -3.21405841119161E+09  -5.09358931140979E-15  -3.58318626588441E-03
      5.09358929362148E-15  -3.58318626588473E-03   5.09358931146734E-15  -3.21405841119161E+09  -5.09358929367261E-15
      1.19377664171444E+03
      1.00000000000000E+01   0.00000000000000E+00  -3.21405841119161E+09  -5.09358855745115E-15  -3.58318626587254E-03
      5.09358854295278E-15  -3.58318626587281E-03   5.09358855751323E-15  -3.21405841119161E+09  -5.09358854300441E-15
      2.15443469003188E+03
      1.00000000000000E+01   0.00000000000000E+00  -3.21405841119161E+09  -5.09358610169990E-15  -3.58318626583233E-03
      5.09358608624679E-15  -3.58318626583262E-03   5.09358610175593E-15  -3.21405841119161E+09  -5.09358608629510E-15
      3.88815518030809E+03
      1.00000000000000E+01   0.00000000000000E+00  -3.21405841119161E+09  -5.09357810346012E-15  -3.58318626570184E-03
      5.09357808381216E-15  -3.58318626570217E-03   5.09357810352996E-15  -3.21405841119161E+09  -5.09357808387049E-15
      7.01703828670382E+03
      1.00000000000000E+01   0.00000000000000E+00  -3.21405841119161E+09  -5.09355205294685E-15  -3.58318626527603E-03
      5.09355203799428E-15  -3.58318626527632E-03   5.09355205301224E-15  -3.21405841119161E+09  -5.09355203804764E-15
      1.26638017346740E+04
      1.00000000000000E+01   0.00000000000000E+00  -3.21405841119161E+09  -5.09346720774208E-15  -3.58318626388914E-03
      5.09346719381712E-15  -3.58318626388943E-03   5.09346720781603E-15  -3.21405841119161E+09  -5.09346719388408E-15
      2.28546386413499E+04
      1.00000000000000E+01   0.00000000000000E+00  -3.21405841119161E+09  -5.09319088417244E-15  -3.58318625937124E-03
      5.09319086646054E-15  -3.58318625937153E-03   5.09319088427055E-15  -3.21405841119161E+09  -5.09319086654839E-15
      4.12462638290135E+04
      1.00000000000000E+01   0.00000000000000E+00  -3.21405841119161E+09  -5.09229109756296E-15  -3.58318624466352E-03
      5.09229107521396E-15  -3.58318624466393E-03   5.09229109761831E-15  -3.21405841119161E+09  -5.09229107526015E-15
      7.44380301325169E+04
      1.00000000000000E+01   0.00000000000000E+00  -3.21405841119161E+09  -5.08936264374336E-15  -3.58318619678843E-03
      5.08936262911345E-15  -3.58318619678854E-03   5.08936264381779E-15  -3.21405841119161E+09  -5.08936262918286E-15
      1.34339933259890E+05
      1.00000000000000E+01   0.00000000000000E+00  -3.21405841119161E+09  -5.07984757073315E-15  -3.58318604124789E-03
      5.07984754823745E-15  -3.58318604124832E-03   5.07984757082413E-15  -3.21405841119161E+09  -5.07984754832066E-15
      2.42446201708233E+05
      1.00000000000000E+01   0.00000000000000E+00  -3.21405841119161E+09  -5.04909830901223E-15  -3.58318553858903E-03
      5.04909829624403E-15  -3.58318553858926E-03   5.04909830908416E-15  -3.21405841119161E+09  -5.04909829630233E-15
      4.37547937507419E+05
      1.00000000000000E+01   0.00000000000000E+00  -3.21405841119161E+09  -4.95144111861038E-15  -3.58318394219755E-03
      4.95144111140611E-15  -3.58318394219773E-03   4.95144111865651E-15  -3.21405841119161E+09  -4.95144111144733E-15
      7.89652286849972E+05
      1.00000000000000E+01   0.00000000000000E+00  -3.21405841119161E+09  -4.65765880207831E-15  -3.58317913989107E-03
      4.65765879445289E-15  -3.58317913989119E-03   4.65765880213405E-15  -3.21405841119161E+09  -4.65765879450225E-15
      1.42510267030300E+06
      1.00000000000000E+01   0.00000000000000E+00  -3.21405841119161E+09  -3.90075409653358E-15  -3.58316676823913E-03
      3.90075408464715E-15  -3.58316676823932E-03   3.90075409655167E-15  -3.21405841119161E+09  -3.90075408466575E-15
      2.57191380905934E+06
      1.00000000000000E+01   0.00000000000000E+00  -3.21405841119161E+09  -2.53896603673166E-15  -3.58314451611188E-03
      2.53896602909835E-15  -3.58314451611201E-03   2.53896603677908E-15  -3.21405841119161E+09  -2.53896602913591E-15
      4.64158883361278E+06
      1.00000000000000E+01   0.00000000000000E+00  -3.21405841119161E+09  -1.16105863670371E-15  -3.58312201943285E-03
      1.16105863626004E-15  -3.58312201943291E-03   1.16105863672517E-15  -3.21405841119161E+09  -1.16105863626994E-15
      8.37677640068293E+06
      1.00000000000000E+01   0.00000000000000E+00  -3.21405841119161E+09  -3.82275267957538E-16  -3.58310930101126E-03
      3.82275267198613E-16  -3.58310930101129E-03   3.82275267970758E-16  -3.21405841119161E+09  -3.82275267203890E-16
      1.51177507061567E+07
      1.00000000000000E+01   0.00000000000000E+00  -3.21405841119161E+09  -7.86341940610143E-17  -3.58310414605147E-03
      7.86341939311286E-17  -3.58310414605150E-03   7.86341940707186E-17  -3.21405841119161E+09  -7.86341939330229E-17
      2.72833337648676E+07
      1.00000000000000E+01   0.00000000000000E+00  -3.21405841119161E+09   2.24565944726658E-17  -3.58310161770481E-03
     -2.24565945832361E-17  -3.58310161770485E-03  -2.24565944621768E-17  -3.21405841119161E+09   2.24565945836120E-17
      4.92388263170673E+07
      1.00000000000000E+01   0.00000000000000E+00  -3.21405841119161E+09   5.54113841525922E-17  -3.58309812917945E-03
     -5.54113841737474E-17  -3.58309812917954E-03  -5.54113841438279E-17  -3.21405841119161E+09   5.54113841737175E-17
      8.88623816274339E+07
      1.00000000000000E+01   0.00000000000000E+00  -3.21405841119161E+09   6.92566827767707E-17  -3.58308876927483E-03
     -6.92566827679632E-17  -3.58308876927488E-03  -6.92566827683019E-17  -3.21405841119161E+09   6.92566827676999E-17
      1.60371874375133E+08
      1.00000000000000E+01   0.00000000000000E+00  -3.21405841119161E+09   8.32711969827446E-17  -3.58306333990824E-03
     -8.32711969751077E-17  -3.58306333990832E-03  -8.32711969759324E-17  -3.21405841119161E+09   8.32711969743152E-17
      2.89426612471675E+08
      1.00000000000000E+01   0.00000000000000E+00  -3.21405841119161E+09   1.06678466776009E-16  -3.58300919663400E-03
     -1.06678466768443E-16  -3.58300919663415E-03  -1.06678466768071E-16  -3.21405841119161E+09   1.06678466768312E-16
      5.22334507426686E+08
      1.00000000000000E+01   0.00000000000000E+00  -3.21405841119161E+09   1.35296683795414E-16  -3.58293160746378E-03
     -1.35296683788503E-16  -3.58293160746388E-03  -1.35296683788307E-16  -3.21405841119161E+09   1.35296683788718E-16
      9.42668455117888E+08
      1.00000000000000E+01   0.00000000000000E+00  -3.21405841119161E+09   1.57878730082406E-16  -3.58284462506405E-03
     -1.57878730074160E-16  -3.58284462506414E-03  -1.57878730074004E-16  -3.21405841119161E+09   1.57878730075830E-16
      1.70125427985259E+09
      1.00000000000000E+01   0.00000000000000E+00  -3.21405841119161E+09   1.73180398986380E-16  -3.58274845821490E-03
     -1.73180398978571E-16  -3.58274845821494E-03  -1.73180398978304E-16  -3.21405841119161E+09   1.73180398978950E-16
      3.07029062975785E+09
      1.00000000000000E+01   0.00000000000000E+00  -3.21405841119161E+09   1.82806358696317E-16  -3.58265341075551E-03
     -1.82806358691528E-16  -3.58265341075556E-03  -1.82806358691406E-16  -3.21405841119161E+09   1.82806358692843E-16
      5.54102033000949E+09
      1.00000000000000E+01   0.00000000000000E+00  -3.21405841119161E+09   1.87853688790278E-16  -3.58256003999439E-03
     -1.87853688784445E-16  -3.58256003999445E-03  -1.87853688784430E-16  -3.21405841119161E+09   1.87853688786451E-16
      1.00000000000000E+10
      1.00000000000000E+01   0.00000000000000E+00  -3.21405841119161E+09   1.90010369980691E-16  -3.58241010473089E-03
     -1.90010369975583E-16  -3.58241010473091E-03  -1.90010369975439E-16  -3.21405841119161E+09   1.90010369976506E-16
}
