DF-ISE text

Info {
  version   = 1.0
  type      = xyplot
  datasets  = [
    "frequency"
    "v(g)" "v(b)" "a(g,g)" "c(g,g)" "a(g,b)"
    "c(g,b)" "a(b,g)" "c(b,g)" "a(b,b)" "c(b,b)" ]
  functions = [
    Frequency
    Voltage Voltage Admittance Capacitance Admittance
    Capacitance Admittance Capacitance Admittance Capacitance ]
}

Data {
      1.00000000000000E+00
      1.00000000000000E+01   0.00000000000000E+00  -3.21405841119096E+09   3.36936357808277E-16  -4.23371633234980E-03
     -3.36936357811160E-16  -4.23371633235018E-03  -3.36936357809359E-16  -3.21405841119096E+09   3.36936357821085E-16
      1.80472176682717E+00
      1.00000000000000E+01   0.00000000000000E+00  -3.21405841119096E+09   3.36936357807289E-16  -4.23371633234980E-03
     -3.36936357811171E-16  -4.23371633235018E-03  -3.36936357809369E-16  -3.21405841119096E+09   3.36936357820997E-16
      3.25702065565978E+00
      1.00000000000000E+01   0.00000000000000E+00  -3.21405841119096E+09   3.36936357808161E-16  -4.23371633234980E-03
     -3.36936357811159E-16  -4.23371633235018E-03  -3.36936357809358E-16  -3.21405841119096E+09   3.36936357820915E-16
      5.87801607227491E+00
      1.00000000000000E+01   0.00000000000000E+00  -3.21405841119096E+09   3.36936357808414E-16  -4.23371633234980E-03
     -3.36936357811168E-16  -4.23371633235018E-03  -3.36936357809369E-16  -3.21405841119096E+09   3.36936357820867E-16
      1.06081835513945E+01
      1.00000000000000E+01   0.00000000000000E+00  -3.21405841119096E+09   3.36936357807688E-16  -4.23371633234980E-03
     -3.36936357811167E-16  -4.23371633235018E-03  -3.36936357809368E-16  -3.21405841119096E+09   3.36936357821136E-16
      1.91448197616996E+01
      1.00000000000000E+01   0.00000000000000E+00  -3.21405841119096E+09   3.36936357808810E-16  -4.23371633234980E-03
     -3.36936357811176E-16  -4.23371633235018E-03  -3.36936357809377E-16  -3.21405841119096E+09   3.36936357821193E-16
      3.45510729459222E+01
      1.00000000000000E+01   0.00000000000000E+00  -3.21405841119096E+09   3.36936357809934E-16  -4.23371633234980E-03
     -3.36936357811168E-16  -4.23371633235018E-03  -3.36936357809367E-16  -3.21405841119096E+09   3.36936357821267E-16
      6.23550734127392E+01
      1.00000000000000E+01   0.00000000000000E+00  -3.21405841119096E+09   3.36936357807332E-16  -4.23371633234980E-03
     -3.36936357811177E-16  -4.23371633235017E-03  -3.36936357809379E-16  -3.21405841119096E+09   3.36936357820835E-16
      1.12533558260076E+02
      1.00000000000000E+01   0.00000000000000E+00  -3.21405841119096E+09   3.36936357808684E-16  -4.23371633234980E-03
     -3.36936357811170E-16  -4.23371633235018E-03  -3.36936357809373E-16  -3.21405841119096E+09   3.36936357820836E-16
      2.03091762090474E+02
      1.00000000000000E+01   0.00000000000000E+00  -3.21405841119096E+09   3.36936357807573E-16  -4.23371633234980E-03
     -3.36936357811182E-16  -4.23371633235018E-03  -3.36936357809384E-16  -3.21405841119096E+09   3.36936357820833E-16
      3.66524123707963E+02
      1.00000000000000E+01   0.00000000000000E+00  -3.21405841119096E+09   3.36936357807748E-16  -4.23371633234980E-03
     -3.36936357811173E-16  -4.23371633235017E-03  -3.36936357809378E-16  -3.21405841119096E+09   3.36936357821072E-16
      6.61474064123015E+02
      1.00000000000000E+01   0.00000000000000E+00  -3.21405841119096E+09   3.36936357808917E-16  -4.23371633234978E-03
     -3.36936357811210E-16  -4.23371633235015E-03  -3.36936357809418E-16  -3.21405841119096E+09   3.36936357821171E-16
      1.19377664171444E+03
      1.00000000000000E+01   0.00000000000000E+00  -3.21405841119096E+09   3.36936357809573E-16  -4.23371633234979E-03
     -3.36936357811209E-16  -4.23371633235016E-03  -3.36936357809424E-16  -3.21405841119096E+09   3.36936357821077E-16
      2.15443469003188E+03
      1.00000000000000E+01   0.00000000000000E+00  -3.21405841119096E+09   3.36936357808701E-16  -4.23371633234980E-03
     -3.36936357811196E-16  -4.23371633235017E-03  -3.36936357809402E-16  -3.21405841119096E+09   3.36936357820561E-16
      3.88815518030809E+03
      1.00000000000000E+01   0.00000000000000E+00  -3.21405841119096E+09   3.36936357809047E-16  -4.23371633234982E-03
     -3.36936357811244E-16  -4.23371633235020E-03  -3.36936357809442E-16  -3.21405841119096E+09   3.36936357821113E-16
      7.01703828670382E+03
      1.00000000000000E+01   0.00000000000000E+00  -3.21405841119096E+09   3.36936357805608E-16  -4.23371633234989E-03
     -3.36936357811360E-16  -4.23371633235026E-03  -3.36936357809531E-16  -3.21405841119096E+09   3.36936357820974E-16
      1.26638017346740E+04
      1.00000000000000E+01   0.00000000000000E+00  -3.21405841119096E+09   3.36936357807499E-16  -4.23371633235004E-03
     -3.36936357811894E-16  -4.23371633235043E-03  -3.36936357810042E-16  -3.21405841119096E+09   3.36936357821411E-16
      2.28546386413499E+04
      1.00000000000000E+01   0.00000000000000E+00  -3.21405841119096E+09   3.36936357809799E-16  -4.23371633234946E-03
     -3.36936357814216E-16  -4.23371633234981E-03  -3.36936357812548E-16  -3.21405841119096E+09   3.36936357823292E-16
      4.12462638290135E+04
      1.00000000000000E+01   0.00000000000000E+00  -3.21405841119096E+09   3.36936357810738E-16  -4.23371633235029E-03
     -3.36936357819358E-16  -4.23371633235072E-03  -3.36936357817272E-16  -3.21405841119096E+09   3.36936357827960E-16
      7.44380301325169E+04
      1.00000000000000E+01   0.00000000000000E+00  -3.21405841119096E+09   3.36936357837092E-16  -4.23371633234860E-03
     -3.36936357844049E-16  -4.23371633234849E-03  -3.36936357843850E-16  -3.21405841119096E+09   3.36936357845174E-16
      1.34339933259890E+05
      1.00000000000000E+01   0.00000000000000E+00  -3.21405841119096E+09   3.36936357898690E-16  -4.23371633234974E-03
     -3.36936357903764E-16  -4.23371633235005E-03  -3.36936357902276E-16  -3.21405841119096E+09   3.36936357911829E-16
      2.42446201708233E+05
      1.00000000000000E+01   0.00000000000000E+00  -3.21405841119096E+09   3.36936358104333E-16  -4.23371633235074E-03
     -3.36936358108008E-16  -4.23371633235129E-03  -3.36936358105705E-16  -3.21405841119096E+09   3.36936358119472E-16
      4.37547937507419E+05
      1.00000000000000E+01   0.00000000000000E+00  -3.21405841119096E+09   3.36936358780806E-16  -4.23371633235084E-03
     -3.36936358780943E-16  -4.23371633235144E-03  -3.36936358778584E-16  -3.21405841119096E+09   3.36936358794390E-16
      7.89652286849972E+05
      1.00000000000000E+01   0.00000000000000E+00  -3.21405841119096E+09   3.36936360979911E-16  -4.23371633234595E-03
     -3.36936360978070E-16  -4.23371633234599E-03  -3.36936360977489E-16  -3.21405841119096E+09   3.36936360983105E-16
      1.42510267030300E+06
      1.00000000000000E+01   0.00000000000000E+00  -3.21405841119096E+09   3.36936368107124E-16  -4.23371633234457E-03
     -3.36936368112936E-16  -4.23371633234498E-03  -3.36936368111196E-16  -3.21405841119096E+09   3.36936368122073E-16
      2.57191380905934E+06
      1.00000000000000E+01   0.00000000000000E+00  -3.21405841119096E+09   3.36936391347594E-16  -4.23371633233249E-03
     -3.36936391348104E-16  -4.23371633233265E-03  -3.36936391347235E-16  -3.21405841119096E+09   3.36936391353540E-16
      4.64158883361278E+06
      1.00000000000000E+01   0.00000000000000E+00  -3.21405841119096E+09   3.36936466839648E-16  -4.23371633230413E-03
     -3.36936466842891E-16  -4.23371633230454E-03  -3.36936466841100E-16  -3.21405841119096E+09   3.36936466852764E-16
      8.37677640068293E+06
      1.00000000000000E+01   0.00000000000000E+00  -3.21405841119096E+09   3.36936710932440E-16  -4.23371633219345E-03
     -3.36936710932213E-16  -4.23371633219387E-03  -3.36936710930569E-16  -3.21405841119096E+09   3.36936710942589E-16
      1.51177507061567E+07
      1.00000000000000E+01   0.00000000000000E+00  -3.21405841119096E+09   3.36937487266677E-16  -4.23371633186139E-03
     -3.36937487260464E-16  -4.23371633186153E-03  -3.36937487260066E-16  -3.21405841119096E+09   3.36937487266877E-16
      2.72833337648676E+07
      1.00000000000000E+01   0.00000000000000E+00  -3.21405841119096E+09   3.36939833769911E-16  -4.23371633087126E-03
     -3.36939833765268E-16  -4.23371633087135E-03  -3.36939833764931E-16  -3.21405841119096E+09   3.36939833771316E-16
      4.92388263170673E+07
      1.00000000000000E+01   0.00000000000000E+00  -3.21405841119096E+09   3.36945981422645E-16  -4.23371632850359E-03
     -3.36945981422932E-16  -4.23371632850364E-03  -3.36945981422122E-16  -3.21405841119096E+09   3.36945981430151E-16
      8.88623816274339E+07
      1.00000000000000E+01   0.00000000000000E+00  -3.21405841119096E+09   3.36957917614795E-16  -4.23371632543580E-03
     -3.36957917612638E-16  -4.23371632543585E-03  -3.36957917612238E-16  -3.21405841119096E+09   3.36957917617725E-16
      1.60371874375133E+08
      1.00000000000000E+01   0.00000000000000E+00  -3.21405841119096E+09   3.36974945446593E-16  -4.23371632991731E-03
     -3.36974945443991E-16  -4.23371632991723E-03  -3.36974945444080E-16  -3.21405841119096E+09   3.36974945448148E-16
      2.89426612471675E+08
      1.00000000000000E+01   0.00000000000000E+00  -3.21405841119096E+09   3.36996077707523E-16  -4.23371637989683E-03
     -3.36996077702380E-16  -4.23371637989694E-03  -3.36996077702291E-16  -3.21405841119096E+09   3.36996077706954E-16
      5.22334507426686E+08
      1.00000000000000E+01   0.00000000000000E+00  -3.21405841119096E+09   3.37017462278028E-16  -4.23371661855644E-03
     -3.37017462278396E-16  -4.23371661855652E-03  -3.37017462277632E-16  -3.21405841119096E+09   3.37017462284790E-16
      9.42668455117888E+08
      1.00000000000000E+01   0.00000000000000E+00  -3.21405841119096E+09   3.37033750847092E-16  -4.23371752342043E-03
     -3.37033750846825E-16  -4.23371752342028E-03  -3.37033750846527E-16  -3.21405841119096E+09   3.37033750852863E-16
      1.70125427985259E+09
      1.00000000000000E+01   0.00000000000000E+00  -3.21405841119096E+09   3.37037934459557E-16  -4.23372064770596E-03
     -3.37037934455367E-16  -4.23372064770578E-03  -3.37037934455608E-16  -3.21405841119096E+09   3.37037934459635E-16
      3.07029062975785E+09
      1.00000000000000E+01   0.00000000000000E+00  -3.21405841119096E+09   3.37013626665522E-16  -4.23373099938918E-03
     -3.37013626668027E-16  -4.23373099938902E-03  -3.37013626667650E-16  -3.21405841119096E+09   3.37013626675171E-16
      5.54102033000949E+09
      1.00000000000000E+01   0.00000000000000E+00  -3.21405841119096E+09   3.36911092914660E-16  -4.23376452626029E-03
     -3.36911092911356E-16  -4.23376452626002E-03  -3.36911092911300E-16  -3.21405841119096E+09   3.36911092918068E-16
      1.00000000000000E+10
      1.00000000000000E+01   0.00000000000000E+00  -3.21405841119096E+09   3.36577117762973E-16  -4.23386997663226E-03
     -3.36577117769089E-16  -4.23386997663262E-03  -3.36577117767277E-16  -3.21405841119096E+09   3.36577117779569E-16
}
