DF-ISE text

Info {
  version   = 1.0
  type      = xyplot
  datasets  = [
    "frequency"
    "v(g)" "v(b)" "a(g,g)" "c(g,g)" "a(g,b)"
    "c(g,b)" "a(b,g)" "c(b,g)" "a(b,b)" "c(b,b)" ]
  functions = [
    Frequency
    Voltage Voltage Admittance Capacitance Admittance
    Capacitance Admittance Capacitance Admittance Capacitance ]
}

Data {
      1.00000000000000E+00
      1.00000000000000E+01   0.00000000000000E+00  -3.21405841119157E+09  -7.29719576242708E-16  -3.62471133723053E-03
      7.29719564484314E-16  -3.62471133723068E-03   7.29719576298494E-16  -3.21405841119157E+09  -7.29719564528758E-16
      1.80472176682717E+00
      1.00000000000000E+01   0.00000000000000E+00  -3.21405841119157E+09  -7.29719576244878E-16  -3.62471133723053E-03
      7.29719564483811E-16  -3.62471133723068E-03   7.29719576297872E-16  -3.21405841119157E+09  -7.29719564520118E-16
      3.25702065565978E+00
      1.00000000000000E+01   0.00000000000000E+00  -3.21405841119157E+09  -7.29719576241105E-16  -3.62471133723052E-03
      7.29719564485705E-16  -3.62471133723067E-03   7.29719576296261E-16  -3.21405841119157E+09  -7.29719564536519E-16
      5.87801607227491E+00
      1.00000000000000E+01   0.00000000000000E+00  -3.21405841119157E+09  -7.29719576235685E-16  -3.62471133723053E-03
      7.29719564496354E-16  -3.62471133723068E-03   7.29719576290776E-16  -3.21405841119157E+09  -7.29719564539089E-16
      1.06081835513945E+01
      1.00000000000000E+01   0.00000000000000E+00  -3.21405841119157E+09  -7.29719576219141E-16  -3.62471133723056E-03
      7.29719564384894E-16  -3.62471133723072E-03   7.29719576273987E-16  -3.21405841119157E+09  -7.29719564432437E-16
      1.91448197616996E+01
      1.00000000000000E+01   0.00000000000000E+00  -3.21405841119157E+09  -7.29719576166081E-16  -3.62471133723055E-03
      7.29719564429210E-16  -3.62471133723070E-03   7.29719576220694E-16  -3.21405841119157E+09  -7.29719564481827E-16
      3.45510729459222E+01
      1.00000000000000E+01   0.00000000000000E+00  -3.21405841119157E+09  -7.29719575986092E-16  -3.62471133723058E-03
      7.29719564389568E-16  -3.62471133723073E-03   7.29719576039698E-16  -3.21405841119157E+09  -7.29719564436889E-16
      6.23550734127392E+01
      1.00000000000000E+01   0.00000000000000E+00  -3.21405841119157E+09  -7.29719575408507E-16  -3.62471133723061E-03
      7.29719564180713E-16  -3.62471133723076E-03   7.29719575462222E-16  -3.21405841119157E+09  -7.29719564234495E-16
      1.12533558260076E+02
      1.00000000000000E+01   0.00000000000000E+00  -3.21405841119157E+09  -7.29719573525349E-16  -3.62471133723052E-03
      7.29719561850551E-16  -3.62471133723068E-03   7.29719573579512E-16  -3.21405841119157E+09  -7.29719561901539E-16
      2.03091762090474E+02
      1.00000000000000E+01   0.00000000000000E+00  -3.21405841119157E+09  -7.29719567384190E-16  -3.62471133723041E-03
      7.29719555425680E-16  -3.62471133723057E-03   7.29719567439749E-16  -3.21405841119157E+09  -7.29719555469667E-16
      3.66524123707963E+02
      1.00000000000000E+01   0.00000000000000E+00  -3.21405841119157E+09  -7.29719547394801E-16  -3.62471133722991E-03
      7.29719534935252E-16  -3.62471133723008E-03   7.29719547454791E-16  -3.21405841119157E+09  -7.29719534984469E-16
      6.61474064123015E+02
      1.00000000000000E+01   0.00000000000000E+00  -3.21405841119157E+09  -7.29719482289921E-16  -3.62471133722890E-03
      7.29719472023589E-16  -3.62471133722902E-03   7.29719482347103E-16  -3.21405841119157E+09  -7.29719472077276E-16
      1.19377664171444E+03
      1.00000000000000E+01   0.00000000000000E+00  -3.21405841119157E+09  -7.29719270242177E-16  -3.62471133722512E-03
      7.29719260688650E-16  -3.62471133722523E-03   7.29719270300354E-16  -3.21405841119157E+09  -7.29719260737357E-16
      2.15443469003188E+03
      1.00000000000000E+01   0.00000000000000E+00  -3.21405841119157E+09  -7.29718579571012E-16  -3.62471133721328E-03
      7.29718568834505E-16  -3.62471133721342E-03   7.29718579627296E-16  -3.21405841119157E+09  -7.29718568890008E-16
      3.88815518030809E+03
      1.00000000000000E+01   0.00000000000000E+00  -3.21405841119157E+09  -7.29716330076881E-16  -3.62471133717437E-03
      7.29716316887784E-16  -3.62471133717454E-03   7.29716330133031E-16  -3.21405841119157E+09  -7.29716316949588E-16
      7.01703828670382E+03
      1.00000000000000E+01   0.00000000000000E+00  -3.21405841119157E+09  -7.29709003466477E-16  -3.62471133704663E-03
      7.29708989610140E-16  -3.62471133704681E-03   7.29709003520250E-16  -3.21405841119157E+09  -7.29708989661607E-16
      1.26638017346740E+04
      1.00000000000000E+01   0.00000000000000E+00  -3.21405841119157E+09  -7.29685141006414E-16  -3.62471133663278E-03
      7.29685124261748E-16  -3.62471133663301E-03   7.29685141066287E-16  -3.21405841119157E+09  -7.29685124320685E-16
      2.28546386413499E+04
      1.00000000000000E+01   0.00000000000000E+00  -3.21405841119157E+09  -7.29607425206808E-16  -3.62471133528014E-03
      7.29607411724964E-16  -3.62471133528031E-03   7.29607425274336E-16  -3.21405841119157E+09  -7.29607411787576E-16
      4.12462638290135E+04
      1.00000000000000E+01   0.00000000000000E+00  -3.21405841119157E+09  -7.29354354253645E-16  -3.62471133088048E-03
      7.29354342652377E-16  -3.62471133088059E-03   7.29354354291131E-16  -3.21405841119157E+09  -7.29354342705539E-16
      7.44380301325169E+04
      1.00000000000000E+01   0.00000000000000E+00  -3.21405841119157E+09  -7.28530636730755E-16  -3.62471131655106E-03
      7.28530623358180E-16  -3.62471131655120E-03   7.28530636802785E-16  -3.21405841119157E+09  -7.28530623434124E-16
      1.34339933259890E+05
      1.00000000000000E+01   0.00000000000000E+00  -3.21405841119157E+09  -7.25853486399978E-16  -3.62471127001119E-03
      7.25853470673519E-16  -3.62471127001142E-03   7.25853486448418E-16  -3.21405841119157E+09  -7.25853470727991E-16
      2.42446201708233E+05
      1.00000000000000E+01   0.00000000000000E+00  -3.21405841119157E+09  -7.17194122910655E-16  -3.62471111944140E-03
      7.17194116120096E-16  -3.62471111944146E-03   7.17194122952567E-16  -3.21405841119157E+09  -7.17194116155171E-16
      4.37547937507419E+05
      1.00000000000000E+01   0.00000000000000E+00  -3.21405841119157E+09  -6.89613577009915E-16  -3.62471063987681E-03
      6.89613569228086E-16  -3.62471063987690E-03   6.89613577037580E-16  -3.21405841119157E+09  -6.89613569242561E-16
      7.89652286849972E+05
      1.00000000000000E+01   0.00000000000000E+00  -3.21405841119157E+09  -6.05910527593020E-16  -3.62470918443657E-03
      6.05910513523019E-16  -3.62470918443674E-03   6.05910527622164E-16  -3.21405841119157E+09  -6.05910513547564E-16
      1.42510267030300E+06
      1.00000000000000E+01   0.00000000000000E+00  -3.21405841119157E+09  -3.85055260412336E-16  -3.62470534404323E-03
      3.85055253734231E-16  -3.62470534404325E-03   3.85055260447813E-16  -3.21405841119157E+09  -3.85055253762160E-16
      2.57191380905934E+06
      1.00000000000000E+01   0.00000000000000E+00  -3.21405841119157E+09   3.22898938854979E-17  -3.62469808599271E-03
     -3.22898978893698E-17  -3.62469808599270E-03  -3.22898938586029E-17  -3.21405841119157E+09   3.22898978715118E-17
      4.64158883361278E+06
      1.00000000000000E+01   0.00000000000000E+00  -3.21405841119157E+09   4.83236544125682E-16  -3.62469023863878E-03
     -4.83236543297943E-16  -3.62469023863870E-03  -4.83236544118760E-16  -3.21405841119157E+09   4.83236543295066E-16
      8.37677640068293E+06
      1.00000000000000E+01   0.00000000000000E+00  -3.21405841119157E+09   7.52572490771853E-16  -3.62468553202042E-03
     -7.52572491408542E-16  -3.62468553202037E-03  -7.52572490762323E-16  -3.21405841119157E+09   7.52572491397243E-16
      1.51177507061567E+07
      1.00000000000000E+01   0.00000000000000E+00  -3.21405841119157E+09   8.61068177120534E-16  -3.62468356772057E-03
     -8.61068177332600E-16  -3.62468356772048E-03  -8.61068177120743E-16  -3.21405841119157E+09   8.61068177331797E-16
      2.72833337648676E+07
      1.00000000000000E+01   0.00000000000000E+00  -3.21405841119157E+09   8.97793814351548E-16  -3.62468267831241E-03
     -8.97793814446848E-16  -3.62468267831233E-03  -8.97793814339482E-16  -3.21405841119157E+09   8.97793814437127E-16
      4.92388263170673E+07
      1.00000000000000E+01   0.00000000000000E+00  -3.21405841119157E+09   9.09896843382503E-16  -3.62468168353260E-03
     -9.09896843393641E-16  -3.62468168353252E-03  -9.09896843380961E-16  -3.21405841119157E+09   9.09896843391645E-16
      8.88623816274339E+07
      1.00000000000000E+01   0.00000000000000E+00  -3.21405841119157E+09   9.15010931343634E-16  -3.62467933381364E-03
     -9.15010931333571E-16  -3.62467933381350E-03  -9.15010931333500E-16  -3.21405841119157E+09   9.15010931324120E-16
      1.60371874375133E+08
      1.00000000000000E+01   0.00000000000000E+00  -3.21405841119157E+09   9.19583394566415E-16  -3.62467384843903E-03
     -9.19583394552157E-16  -3.62467384843895E-03  -9.19583394553788E-16  -3.21405841119157E+09   9.19583394543258E-16
      2.89426612471675E+08
      1.00000000000000E+01   0.00000000000000E+00  -3.21405841119157E+09   9.25785439953297E-16  -3.62466403875175E-03
     -9.25785439933837E-16  -3.62466403875164E-03  -9.25785439933592E-16  -3.21405841119157E+09   9.25785439917770E-16
      5.22334507426686E+08
      1.00000000000000E+01   0.00000000000000E+00  -3.21405841119157E+09   9.33858165864789E-16  -3.62465689368637E-03
     -9.33858165852532E-16  -3.62465689368633E-03  -9.33858165852350E-16  -3.21405841119157E+09   9.33858165842309E-16
      9.42668455117888E+08
      1.00000000000000E+01   0.00000000000000E+00  -3.21405841119157E+09   9.40635554988631E-16  -3.62468498358708E-03
     -9.40635554980768E-16  -3.62468498358702E-03  -9.40635554980718E-16  -3.21405841119157E+09   9.40635554973985E-16
      1.70125427985259E+09
      1.00000000000000E+01   0.00000000000000E+00  -3.21405841119157E+09   9.44631043692721E-16  -3.62483615628844E-03
     -9.44631043691401E-16  -3.62483615628833E-03  -9.44631043691256E-16  -3.21405841119157E+09   9.44631043695632E-16
      3.07029062975785E+09
      1.00000000000000E+01   0.00000000000000E+00  -3.21405841119157E+09   9.45054209511652E-16  -3.62539463008286E-03
     -9.45054209518510E-16  -3.62539463008288E-03  -9.45054209518279E-16  -3.21405841119157E+09   9.45054209528283E-16
      5.54102033000949E+09
      1.00000000000000E+01   0.00000000000000E+00  -3.21405841119156E+09   9.38021307791986E-16  -3.62724466073330E-03
     -9.38021307776851E-16  -3.62724466073318E-03  -9.38021307776818E-16  -3.21405841119157E+09   9.38021307762812E-16
      1.00000000000000E+10
      1.00000000000000E+01   0.00000000000000E+00  -3.21405841119156E+09   9.12172403877505E-16  -3.63287152345056E-03
     -9.12172403861810E-16  -3.63287152345041E-03  -9.12172403861787E-16  -3.21405841119156E+09   9.12172403850637E-16
}
