DF-ISE text

Info {
  version   = 1.0
  type      = xyplot
  datasets  = [
    "frequency"
    "v(g)" "v(b)" "a(g,g)" "c(g,g)" "a(g,b)"
    "c(g,b)" "a(b,g)" "c(b,g)" "a(b,b)" "c(b,b)" ]
  functions = [
    Frequency
    Voltage Voltage Admittance Capacitance Admittance
    Capacitance Admittance Capacitance Admittance Capacitance ]
}

Data {
      1.00000000000000E+00
      1.00000000000000E+01   0.00000000000000E+00  -3.21405841119162E+09  -4.95868172771745E-15  -3.56855491327583E-03
      4.95868170372979E-15  -3.56855491327619E-03   4.95868172780646E-15  -3.21405841119162E+09  -4.95868170380793E-15
      1.80472176682717E+00
      1.00000000000000E+01   0.00000000000000E+00  -3.21405841119162E+09  -4.95868172771482E-15  -3.56855491327583E-03
      4.95868170373090E-15  -3.56855491327619E-03   4.95868172780471E-15  -3.21405841119162E+09  -4.95868170380636E-15
      3.25702065565978E+00
      1.00000000000000E+01   0.00000000000000E+00  -3.21405841119162E+09  -4.95868172771209E-15  -3.56855491327583E-03
      4.95868170371885E-15  -3.56855491327620E-03   4.95868172779867E-15  -3.21405841119162E+09  -4.95868170379552E-15
      5.87801607227491E+00
      1.00000000000000E+01   0.00000000000000E+00  -3.21405841119162E+09  -4.95868172769064E-15  -3.56855491327582E-03
      4.95868170369538E-15  -3.56855491327619E-03   4.95868172778050E-15  -3.21405841119162E+09  -4.95868170376953E-15
      1.06081835513945E+01
      1.00000000000000E+01   0.00000000000000E+00  -3.21405841119162E+09  -4.95868172763476E-15  -3.56855491327583E-03
      4.95868170374955E-15  -3.56855491327619E-03   4.95868172772142E-15  -3.21405841119162E+09  -4.95868170382096E-15
      1.91448197616996E+01
      1.00000000000000E+01   0.00000000000000E+00  -3.21405841119162E+09  -4.95868172744741E-15  -3.56855491327581E-03
      4.95868170368289E-15  -3.56855491327618E-03   4.95868172753506E-15  -3.21405841119162E+09  -4.95868170375845E-15
      3.45510729459222E+01
      1.00000000000000E+01   0.00000000000000E+00  -3.21405841119162E+09  -4.95868172683648E-15  -3.56855491327584E-03
      4.95868170254716E-15  -3.56855491327622E-03   4.95868172692267E-15  -3.21405841119162E+09  -4.95868170262255E-15
      6.23550734127392E+01
      1.00000000000000E+01   0.00000000000000E+00  -3.21405841119162E+09  -4.95868172484793E-15  -3.56855491327580E-03
      4.95868170073542E-15  -3.56855491327617E-03   4.95868172493394E-15  -3.21405841119162E+09  -4.95868170081450E-15
      1.12533558260076E+02
      1.00000000000000E+01   0.00000000000000E+00  -3.21405841119162E+09  -4.95868171835747E-15  -3.56855491327559E-03
      4.95868169464177E-15  -3.56855491327594E-03   4.95868171844518E-15  -3.21405841119162E+09  -4.95868169471929E-15
      2.03091762090474E+02
      1.00000000000000E+01   0.00000000000000E+00  -3.21405841119162E+09  -4.95868169717849E-15  -3.56855491327529E-03
      4.95868167382914E-15  -3.56855491327565E-03   4.95868169726749E-15  -3.21405841119162E+09  -4.95868167390319E-15
      3.66524123707963E+02
      1.00000000000000E+01   0.00000000000000E+00  -3.21405841119162E+09  -4.95868162823487E-15  -3.56855491327411E-03
      4.95868160419886E-15  -3.56855491327448E-03   4.95868162832543E-15  -3.21405841119162E+09  -4.95868160427407E-15
      6.61474064123015E+02
      1.00000000000000E+01   0.00000000000000E+00  -3.21405841119162E+09  -4.95868140367572E-15  -3.56855491327050E-03
      4.95868138060301E-15  -3.56855491327085E-03   4.95868140376161E-15  -3.21405841119162E+09  -4.95868138067600E-15
      1.19377664171444E+03
      1.00000000000000E+01   0.00000000000000E+00  -3.21405841119162E+09  -4.95868067230796E-15  -3.56855491325889E-03
      4.95868065514226E-15  -3.56855491325915E-03   4.95868067239841E-15  -3.21405841119162E+09  -4.95868065522070E-15
      2.15443469003188E+03
      1.00000000000000E+01   0.00000000000000E+00  -3.21405841119162E+09  -4.95867829006865E-15  -3.56855491321968E-03
      4.95867826635143E-15  -3.56855491322004E-03   4.95867829015326E-15  -3.21405841119162E+09  -4.95867826642987E-15
      3.88815518030809E+03
      1.00000000000000E+01   0.00000000000000E+00  -3.21405841119162E+09  -4.95867053125876E-15  -3.56855491309280E-03
      4.95867051185588E-15  -3.56855491309308E-03   4.95867053134317E-15  -3.21405841119162E+09  -4.95867051192990E-15
      7.01703828670382E+03
      1.00000000000000E+01   0.00000000000000E+00  -3.21405841119162E+09  -4.95864526083255E-15  -3.56855491267932E-03
      4.95864524177373E-15  -3.56855491267963E-03   4.95864526091922E-15  -3.21405841119162E+09  -4.95864524185328E-15
      1.26638017346740E+04
      1.00000000000000E+01   0.00000000000000E+00  -3.21405841119162E+09  -4.95856295610211E-15  -3.56855491133253E-03
      4.95856293377999E-15  -3.56855491133290E-03   4.95856295619663E-15  -3.21405841119162E+09  -4.95856293386580E-15
      2.28546386413499E+04
      1.00000000000000E+01   0.00000000000000E+00  -3.21405841119162E+09  -4.95829490663901E-15  -3.56855490694448E-03
      4.95829488761003E-15  -3.56855490694476E-03   4.95829490675050E-15  -3.21405841119162E+09  -4.95829488771494E-15
      4.12462638290135E+04
      1.00000000000000E+01   0.00000000000000E+00  -3.21405841119162E+09  -4.95742206249540E-15  -3.56855489265854E-03
      4.95742204340172E-15  -3.56855489265885E-03   4.95742206257072E-15  -3.21405841119162E+09  -4.95742204347513E-15
      7.44380301325169E+04
      1.00000000000000E+01   0.00000000000000E+00  -3.21405841119162E+09  -4.95458129215535E-15  -3.56855484615894E-03
      4.95458127140677E-15  -3.56855484615910E-03   4.95458129223857E-15  -3.21405841119162E+09  -4.95458127149063E-15
      1.34339933259890E+05
      1.00000000000000E+01   0.00000000000000E+00  -3.21405841119162E+09  -4.94535107756185E-15  -3.56855469508633E-03
      4.94535105824213E-15  -3.56855469508666E-03   4.94535107765750E-15  -3.21405841119162E+09  -4.94535105833037E-15
      2.42446201708233E+05
      1.00000000000000E+01   0.00000000000000E+00  -3.21405841119162E+09  -4.91552195906824E-15  -3.56855420685182E-03
      4.91552194119852E-15  -3.56855420685211E-03   4.91552195917948E-15  -3.21405841119162E+09  -4.91552194130041E-15
      4.37547937507419E+05
      1.00000000000000E+01   0.00000000000000E+00  -3.21405841119162E+09  -4.82078284189038E-15  -3.56855265619018E-03
      4.82078282838579E-15  -3.56855265619043E-03   4.82078284194778E-15  -3.21405841119162E+09  -4.82078282843180E-15
      7.89652286849972E+05
      1.00000000000000E+01   0.00000000000000E+00  -3.21405841119162E+09  -4.53573979735150E-15  -3.56854799064452E-03
      4.53573977850993E-15  -3.56854799064474E-03   4.53573979740989E-15  -3.21405841119162E+09  -4.53573977856342E-15
      1.42510267030300E+06
      1.00000000000000E+01   0.00000000000000E+00  -3.21405841119162E+09  -3.80107077787743E-15  -3.56853596531355E-03
      3.80107075799714E-15  -3.56853596531379E-03   3.80107077792649E-15  -3.21405841119162E+09  -3.80107075803724E-15
      2.57191380905934E+06
      1.00000000000000E+01   0.00000000000000E+00  -3.21405841119162E+09  -2.47814596844983E-15  -3.56851430860592E-03
      2.47814595864945E-15  -3.56851430860604E-03   2.47814596848515E-15  -3.21405841119162E+09  -2.47814595867519E-15
      4.64158883361278E+06
      1.00000000000000E+01   0.00000000000000E+00  -3.21405841119162E+09  -1.13736730348089E-15  -3.56849234616453E-03
      1.13736730654626E-15  -3.56849234616444E-03   1.13736730350045E-15  -3.21405841119162E+09  -1.13736730655674E-15
      8.37677640068293E+06
      1.00000000000000E+01   0.00000000000000E+00  -3.21405841119162E+09  -3.77142507671251E-16  -3.56847983686384E-03
      3.77142508130485E-16  -3.56847983686379E-03   3.77142507689464E-16  -3.21405841119162E+09  -3.77142508139038E-16
      1.51177507061567E+07
      1.00000000000000E+01   0.00000000000000E+00  -3.21405841119162E+09  -7.92842439626620E-17  -3.56847471664036E-03
      7.92842443075981E-17  -3.56847471664036E-03   7.92842439744850E-17  -3.21405841119162E+09  -7.92842443119659E-17
      2.72833337648676E+07
      1.00000000000000E+01   0.00000000000000E+00  -3.21405841119162E+09   2.01868067980942E-17  -3.56847222151789E-03
     -2.01868068382887E-17  -3.56847222151785E-03  -2.01868067856687E-17  -3.21405841119162E+09   2.01868068382253E-17
      4.92388263170673E+07
      1.00000000000000E+01   0.00000000000000E+00  -3.21405841119162E+09   5.25926754365986E-17  -3.56846883129230E-03
     -5.25926754510302E-17  -3.56846883129226E-03  -5.25926754280188E-17  -3.21405841119162E+09   5.25926754494648E-17
      8.88623816274339E+07
      1.00000000000000E+01   0.00000000000000E+00  -3.21405841119162E+09   6.60999396139859E-17  -3.56845974746321E-03
     -6.60999395991925E-17  -3.56845974746317E-03  -6.60999396061077E-17  -3.21405841119162E+09   6.60999395993146E-17
      1.60371874375133E+08
      1.00000000000000E+01   0.00000000000000E+00  -3.21405841119162E+09   7.96670740038327E-17  -3.56843495532140E-03
     -7.96670739933465E-17  -3.56843495532145E-03  -7.96670739970994E-17  -3.21405841119162E+09   7.96670739934704E-17
      2.89426612471675E+08
      1.00000000000000E+01   0.00000000000000E+00  -3.21405841119162E+09   1.02460504312901E-16  -3.56838190847359E-03
     -1.02460504302899E-16  -3.56838190847351E-03  -1.02460504303721E-16  -3.21405841119162E+09   1.02460504303190E-16
      5.22334507426686E+08
      1.00000000000000E+01   0.00000000000000E+00  -3.21405841119162E+09   1.30492169160688E-16  -3.56830559624026E-03
     -1.30492169150274E-16  -3.56830559624021E-03  -1.30492169150027E-16  -3.21405841119162E+09   1.30492169150425E-16
      9.42668455117888E+08
      1.00000000000000E+01   0.00000000000000E+00  -3.21405841119162E+09   1.52698731348878E-16  -3.56821988560044E-03
     -1.52698731340763E-16  -3.56821988560033E-03  -1.52698731341032E-16  -3.21405841119162E+09   1.52698731341595E-16
      1.70125427985259E+09
      1.00000000000000E+01   0.00000000000000E+00  -3.21405841119162E+09   1.67776940346843E-16  -3.56812530114395E-03
     -1.67776940340039E-16  -3.56812530114382E-03  -1.67776940340317E-16  -3.21405841119162E+09   1.67776940341877E-16
      3.07029062975785E+09
      1.00000000000000E+01   0.00000000000000E+00  -3.21405841119162E+09   1.77256542785441E-16  -3.56803239152560E-03
     -1.77256542776778E-16  -3.56803239152554E-03  -1.77256542776897E-16  -3.21405841119162E+09   1.77256542778483E-16
      5.54102033000949E+09
      1.00000000000000E+01   0.00000000000000E+00  -3.21405841119162E+09   1.82225955861916E-16  -3.56794258830081E-03
     -1.82225955854089E-16  -3.56794258830077E-03  -1.82225955854326E-16  -3.21405841119162E+09   1.82225955855387E-16
      1.00000000000000E+10
      1.00000000000000E+01   0.00000000000000E+00  -3.21405841119162E+09   1.84337891390344E-16  -3.56780247327126E-03
     -1.84337891383521E-16  -3.56780247327117E-03  -1.84337891383946E-16  -3.21405841119162E+09   1.84337891385552E-16
}
