DF-ISE text

Info {
  version   = 1.0
  type      = xyplot
  datasets  = [
    "frequency"
    "v(g)" "v(b)" "a(g,g)" "c(g,g)" "a(g,b)"
    "c(g,b)" "a(b,g)" "c(b,g)" "a(b,b)" "c(b,b)" ]
  functions = [
    Frequency
    Voltage Voltage Admittance Capacitance Admittance
    Capacitance Admittance Capacitance Admittance Capacitance ]
}

Data {
      1.00000000000000E+00
      1.00000000000000E+01   0.00000000000000E+00  -3.21405841119110E+09  -1.71289971361819E-15  -4.09254787387742E-03
      1.71289971939933E-15  -4.09254787387732E-03   1.71289971335681E-15  -3.21405841119110E+09  -1.71289971904759E-15
      1.80472176682717E+00
      1.00000000000000E+01   0.00000000000000E+00  -3.21405841119110E+09  -1.71289971361715E-15  -4.09254787387742E-03
      1.71289971955481E-15  -4.09254787387732E-03   1.71289971335603E-15  -3.21405841119110E+09  -1.71289971916678E-15
      3.25702065565978E+00
      1.00000000000000E+01   0.00000000000000E+00  -3.21405841119110E+09  -1.71289971361333E-15  -4.09254787387743E-03
      1.71289971960092E-15  -4.09254787387733E-03   1.71289971335390E-15  -3.21405841119110E+09  -1.71289971931319E-15
      5.87801607227491E+00
      1.00000000000000E+01   0.00000000000000E+00  -3.21405841119110E+09  -1.71289971361137E-15  -4.09254787387743E-03
      1.71289971922976E-15  -4.09254787387732E-03   1.71289971334877E-15  -3.21405841119110E+09  -1.71289971905323E-15
      1.06081835513945E+01
      1.00000000000000E+01   0.00000000000000E+00  -3.21405841119110E+09  -1.71289971359199E-15  -4.09254787387743E-03
      1.71289971924072E-15  -4.09254787387733E-03   1.71289971332993E-15  -3.21405841119110E+09  -1.71289971895532E-15
      1.91448197616996E+01
      1.00000000000000E+01   0.00000000000000E+00  -3.21405841119110E+09  -1.71289971353275E-15  -4.09254787387741E-03
      1.71289971959451E-15  -4.09254787387732E-03   1.71289971326978E-15  -3.21405841119110E+09  -1.71289971914548E-15
      3.45510729459222E+01
      1.00000000000000E+01   0.00000000000000E+00  -3.21405841119110E+09  -1.71289971334550E-15  -4.09254787387743E-03
      1.71289971923684E-15  -4.09254787387733E-03   1.71289971308171E-15  -3.21405841119110E+09  -1.71289971879931E-15
      6.23550734127392E+01
      1.00000000000000E+01   0.00000000000000E+00  -3.21405841119110E+09  -1.71289971272544E-15  -4.09254787387742E-03
      1.71289971886376E-15  -4.09254787387732E-03   1.71289971246188E-15  -3.21405841119110E+09  -1.71289971845565E-15
      1.12533558260076E+02
      1.00000000000000E+01   0.00000000000000E+00  -3.21405841119110E+09  -1.71289971070112E-15  -4.09254787387729E-03
      1.71289971724959E-15  -4.09254787387718E-03   1.71289971044401E-15  -3.21405841119110E+09  -1.71289971689153E-15
      2.03091762090474E+02
      1.00000000000000E+01   0.00000000000000E+00  -3.21405841119110E+09  -1.71289970409898E-15  -4.09254787387731E-03
      1.71289971037755E-15  -4.09254787387720E-03   1.71289970382842E-15  -3.21405841119110E+09  -1.71289970997470E-15
      3.66524123707963E+02
      1.00000000000000E+01   0.00000000000000E+00  -3.21405841119110E+09  -1.71289968260049E-15  -4.09254787387684E-03
      1.71289968878894E-15  -4.09254787387673E-03   1.71289968232677E-15  -3.21405841119110E+09  -1.71289968852461E-15
      6.61474064123015E+02
      1.00000000000000E+01   0.00000000000000E+00  -3.21405841119110E+09  -1.71289961257725E-15  -4.09254787387576E-03
      1.71289961870454E-15  -4.09254787387567E-03   1.71289961230754E-15  -3.21405841119110E+09  -1.71289961865141E-15
      1.19377664171444E+03
      1.00000000000000E+01   0.00000000000000E+00  -3.21405841119110E+09  -1.71289938451634E-15  -4.09254787387157E-03
      1.71289939205779E-15  -4.09254787387145E-03   1.71289938421540E-15  -3.21405841119110E+09  -1.71289939190278E-15
      2.15443469003188E+03
      1.00000000000000E+01   0.00000000000000E+00  -3.21405841119110E+09  -1.71289864168968E-15  -4.09254787385764E-03
      1.71289865416289E-15  -4.09254787385745E-03   1.71289864136058E-15  -3.21405841119110E+09  -1.71289865421614E-15
      3.88815518030809E+03
      1.00000000000000E+01   0.00000000000000E+00  -3.21405841119110E+09  -1.71289622230251E-15  -4.09254787381219E-03
      1.71289622930487E-15  -4.09254787381210E-03   1.71289622198411E-15  -3.21405841119110E+09  -1.71289622888200E-15
      7.01703828670382E+03
      1.00000000000000E+01   0.00000000000000E+00  -3.21405841119110E+09  -1.71288834239325E-15  -4.09254787366365E-03
      1.71288834704299E-15  -4.09254787366365E-03   1.71288834206838E-15  -3.21405841119110E+09  -1.71288834673739E-15
      1.26638017346740E+04
      1.00000000000000E+01   0.00000000000000E+00  -3.21405841119110E+09  -1.71286267768492E-15  -4.09254787317610E-03
      1.71286268647767E-15  -4.09254787317604E-03   1.71286267739769E-15  -3.21405841119110E+09  -1.71286268618644E-15
      2.28546386413499E+04
      1.00000000000000E+01   0.00000000000000E+00  -3.21405841119110E+09  -1.71277909158031E-15  -4.09254787159168E-03
      1.71277909998215E-15  -4.09254787159158E-03   1.71277909127504E-15  -3.21405841119110E+09  -1.71277909971660E-15
      4.12462638290135E+04
      1.00000000000000E+01   0.00000000000000E+00  -3.21405841119110E+09  -1.71250689601745E-15  -4.09254786642751E-03
      1.71250690064036E-15  -4.09254786642745E-03   1.71250689572567E-15  -3.21405841119110E+09  -1.71250690029143E-15
      7.44380301325169E+04
      1.00000000000000E+01   0.00000000000000E+00  -3.21405841119110E+09  -1.71162083754707E-15  -4.09254784961924E-03
      1.71162084450818E-15  -4.09254784961904E-03   1.71162083724093E-15  -3.21405841119110E+09  -1.71162084373485E-15
      1.34339933259890E+05
      1.00000000000000E+01   0.00000000000000E+00  -3.21405841119110E+09  -1.70874009502645E-15  -4.09254779498196E-03
      1.70874009658606E-15  -4.09254779498193E-03   1.70874009481486E-15  -3.21405841119110E+09  -1.70874009586609E-15
      2.42446201708233E+05
      1.00000000000000E+01   0.00000000000000E+00  -3.21405841119110E+09  -1.69941194147087E-15  -4.09254761806343E-03
      1.69941194631699E-15  -4.09254761806359E-03   1.69941194123592E-15  -3.21405841119110E+09  -1.69941194607404E-15
      4.37547937507419E+05
      1.00000000000000E+01   0.00000000000000E+00  -3.21405841119110E+09  -1.66959637707802E-15  -4.09254705255945E-03
      1.66959637406204E-15  -4.09254705256011E-03   1.66959637679849E-15  -3.21405841119110E+09  -1.66959637395240E-15
      7.89652286849972E+05
      1.00000000000000E+01   0.00000000000000E+00  -3.21405841119110E+09  -1.57812138954677E-15  -4.09254531754999E-03
      1.57812138837927E-15  -4.09254531755042E-03   1.57812138931743E-15  -3.21405841119110E+09  -1.57812138824324E-15
      1.42510267030300E+06
      1.00000000000000E+01   0.00000000000000E+00  -3.21405841119110E+09  -1.32937968236486E-15  -4.09254059949707E-03
      1.32937968259002E-15  -4.09254059949723E-03   1.32937968215022E-15  -3.21405841119110E+09  -1.32937968235829E-15
      2.57191380905934E+06
      1.00000000000000E+01   0.00000000000000E+00  -3.21405841119110E+09  -8.27903736501542E-16  -4.09253108647482E-03
      8.27903738090354E-16  -4.09253108647492E-03   8.27903736472237E-16  -3.21405841119110E+09  -8.27903738081778E-16
      4.64158883361278E+06
      1.00000000000000E+01   0.00000000000000E+00  -3.21405841119110E+09  -2.34291969838640E-16  -4.09251981917656E-03
      2.34291972657407E-16  -4.09251981917664E-03   2.34291969859576E-16  -3.21405841119110E+09  -2.34291972658249E-16
      8.37677640068293E+06
      1.00000000000000E+01   0.00000000000000E+00  -3.21405841119110E+09   1.49275850919163E-16  -4.09251251341175E-03
     -1.49275848749913E-16  -4.09251251341191E-03  -1.49275850934965E-16  -3.21405841119110E+09   1.49275848761303E-16
      1.51177507061567E+07
      1.00000000000000E+01   0.00000000000000E+00  -3.21405841119110E+09   3.10725189897609E-16  -4.09250936047162E-03
     -3.10725189403541E-16  -4.09250936047178E-03  -3.10725189915684E-16  -3.21405841119110E+09   3.10725189428133E-16
      2.72833337648676E+07
      1.00000000000000E+01   0.00000000000000E+00  -3.21405841119110E+09   3.66695480598803E-16  -4.09250809496798E-03
     -3.66695480384343E-16  -4.09250809496787E-03  -3.66695480602279E-16  -3.21405841119110E+09   3.66695480389451E-16
      4.92388263170673E+07
      1.00000000000000E+01   0.00000000000000E+00  -3.21405841119110E+09   3.84824003664391E-16  -4.09250741679553E-03
     -3.84824003669820E-16  -4.09250741679562E-03  -3.84824003678601E-16  -3.21405841119110E+09   3.84824003690015E-16
      8.88623816274339E+07
      1.00000000000000E+01   0.00000000000000E+00  -3.21405841119110E+09   3.89712723618150E-16  -4.09250599912720E-03
     -3.89712723617546E-16  -4.09250599912754E-03  -3.89712723635983E-16  -3.21405841119110E+09   3.89712723639099E-16
      1.60371874375133E+08
      1.00000000000000E+01   0.00000000000000E+00  -3.21405841119110E+09   3.92251821276174E-16  -4.09250013064953E-03
     -3.92251821275957E-16  -4.09250013064961E-03  -3.92251821290158E-16  -3.21405841119110E+09   3.92251821292493E-16
      2.89426612471675E+08
      1.00000000000000E+01   0.00000000000000E+00  -3.21405841119110E+09   3.97475534182525E-16  -4.09248500642027E-03
     -3.97475534191868E-16  -4.09248500642073E-03  -3.97475534197141E-16  -3.21405841119110E+09   3.97475534209866E-16
      5.22334507426686E+08
      1.00000000000000E+01   0.00000000000000E+00  -3.21405841119110E+09   4.05740642019845E-16  -4.09245970364358E-03
     -4.05740642046480E-16  -4.09245970364432E-03  -4.05740642045826E-16  -3.21405841119110E+09   4.05740642073813E-16
      9.42668455117888E+08
      1.00000000000000E+01   0.00000000000000E+00  -3.21405841119110E+09   4.13544224975526E-16  -4.09243368187950E-03
     -4.13544224996522E-16  -4.09243368188003E-03  -4.13544224995514E-16  -3.21405841119110E+09   4.13544225018542E-16
      1.70125427985259E+09
      1.00000000000000E+01   0.00000000000000E+00  -3.21405841119110E+09   4.18809076552449E-16  -4.09241835724818E-03
     -4.18809076578220E-16  -4.09241835724862E-03  -4.18809076575862E-16  -3.21405841119110E+09   4.18809076603353E-16
      3.07029062975785E+09
      1.00000000000000E+01   0.00000000000000E+00  -3.21405841119110E+09   4.21984043311039E-16  -4.09244289982615E-03
     -4.21984043327596E-16  -4.09244289982636E-03  -4.21984043326186E-16  -3.21405841119110E+09   4.21984043344587E-16
      5.54102033000949E+09
      1.00000000000000E+01   0.00000000000000E+00  -3.21405841119110E+09   4.23205929142415E-16  -4.09260078629795E-03
     -4.23205929149909E-16  -4.09260078629824E-03  -4.23205929149106E-16  -3.21405841119110E+09   4.23205929159844E-16
      1.00000000000000E+10
      1.00000000000000E+01   0.00000000000000E+00  -3.21405841119110E+09   4.21826442825555E-16  -4.09315398512325E-03
     -4.21826442845565E-16  -4.09315398512381E-03  -4.21826442843450E-16  -3.21405841119110E+09   4.21826442865025E-16
}
