DF-ISE text

Info {
  version   = 1.0
  type      = xyplot
  datasets  = [
    "frequency"
    "v(g)" "v(b)" "a(g,g)" "c(g,g)" "a(g,b)"
    "c(g,b)" "a(b,g)" "c(b,g)" "a(b,b)" "c(b,b)" ]
  functions = [
    Frequency
    Voltage Voltage Admittance Capacitance Admittance
    Capacitance Admittance Capacitance Admittance Capacitance ]
}

Data {
      1.00000000000000E+00
      1.00000000000000E+01   0.00000000000000E+00  -3.21405841118539E+09   2.13288823779710E-16  -9.79973135030233E-03
     -2.13288823785330E-16  -9.79973135030217E-03  -2.13288823785517E-16  -3.21405841118539E+09   2.13288823787889E-16
      1.80472176682717E+00
      1.00000000000000E+01   0.00000000000000E+00  -3.21405841118539E+09   2.13288823769626E-16  -9.79973135030233E-03
     -2.13288823785370E-16  -9.79973135030217E-03  -2.13288823785553E-16  -3.21405841118539E+09   2.13288823787941E-16
      3.25702065565978E+00
      1.00000000000000E+01   0.00000000000000E+00  -3.21405841118539E+09   2.13288823797343E-16  -9.79973135030233E-03
     -2.13288823785390E-16  -9.79973135030217E-03  -2.13288823785570E-16  -3.21405841118539E+09   2.13288823787508E-16
      5.87801607227491E+00
      1.00000000000000E+01   0.00000000000000E+00  -3.21405841118539E+09   2.13288823795764E-16  -9.79973135030233E-03
     -2.13288823785403E-16  -9.79973135030217E-03  -2.13288823785587E-16  -3.21405841118539E+09   2.13288823787599E-16
      1.06081835513945E+01
      1.00000000000000E+01   0.00000000000000E+00  -3.21405841118539E+09   2.13288823803061E-16  -9.79973135030233E-03
     -2.13288823785407E-16  -9.79973135030217E-03  -2.13288823785573E-16  -3.21405841118539E+09   2.13288823787829E-16
      1.91448197616996E+01
      1.00000000000000E+01   0.00000000000000E+00  -3.21405841118539E+09   2.13288823758578E-16  -9.79973135030233E-03
     -2.13288823785373E-16  -9.79973135030217E-03  -2.13288823785548E-16  -3.21405841118539E+09   2.13288823787799E-16
      3.45510729459222E+01
      1.00000000000000E+01   0.00000000000000E+00  -3.21405841118539E+09   2.13288823771922E-16  -9.79973135030233E-03
     -2.13288823785383E-16  -9.79973135030217E-03  -2.13288823785556E-16  -3.21405841118539E+09   2.13288823787937E-16
      6.23550734127392E+01
      1.00000000000000E+01   0.00000000000000E+00  -3.21405841118539E+09   2.13288823782534E-16  -9.79973135030233E-03
     -2.13288823785411E-16  -9.79973135030217E-03  -2.13288823785588E-16  -3.21405841118539E+09   2.13288823787749E-16
      1.12533558260076E+02
      1.00000000000000E+01   0.00000000000000E+00  -3.21405841118539E+09   2.13288823789526E-16  -9.79973135030233E-03
     -2.13288823785420E-16  -9.79973135030217E-03  -2.13288823785595E-16  -3.21405841118539E+09   2.13288823787235E-16
      2.03091762090474E+02
      1.00000000000000E+01   0.00000000000000E+00  -3.21405841118539E+09   2.13288823784862E-16  -9.79973135030233E-03
     -2.13288823785410E-16  -9.79973135030217E-03  -2.13288823785587E-16  -3.21405841118539E+09   2.13288823787910E-16
      3.66524123707963E+02
      1.00000000000000E+01   0.00000000000000E+00  -3.21405841118539E+09   2.13288823770081E-16  -9.79973135030232E-03
     -2.13288823785398E-16  -9.79973135030216E-03  -2.13288823785584E-16  -3.21405841118539E+09   2.13288823787924E-16
      6.61474064123015E+02
      1.00000000000000E+01   0.00000000000000E+00  -3.21405841118539E+09   2.13288823754050E-16  -9.79973135030232E-03
     -2.13288823785375E-16  -9.79973135030216E-03  -2.13288823785551E-16  -3.21405841118539E+09   2.13288823788207E-16
      1.19377664171444E+03
      1.00000000000000E+01   0.00000000000000E+00  -3.21405841118539E+09   2.13288823787526E-16  -9.79973135030234E-03
     -2.13288823785429E-16  -9.79973135030218E-03  -2.13288823785601E-16  -3.21405841118539E+09   2.13288823787853E-16
      2.15443469003188E+03
      1.00000000000000E+01   0.00000000000000E+00  -3.21405841118539E+09   2.13288823794730E-16  -9.79973135030231E-03
     -2.13288823785374E-16  -9.79973135030216E-03  -2.13288823785550E-16  -3.21405841118539E+09   2.13288823787684E-16
      3.88815518030809E+03
      1.00000000000000E+01   0.00000000000000E+00  -3.21405841118539E+09   2.13288823781079E-16  -9.79973135030229E-03
     -2.13288823785425E-16  -9.79973135030212E-03  -2.13288823785607E-16  -3.21405841118539E+09   2.13288823787546E-16
      7.01703828670382E+03
      1.00000000000000E+01   0.00000000000000E+00  -3.21405841118539E+09   2.13288823795661E-16  -9.79973135030224E-03
     -2.13288823785545E-16  -9.79973135030207E-03  -2.13288823785742E-16  -3.21405841118539E+09   2.13288823786215E-16
      1.26638017346740E+04
      1.00000000000000E+01   0.00000000000000E+00  -3.21405841118539E+09   2.13288823808085E-16  -9.79973135030246E-03
     -2.13288823785701E-16  -9.79973135030235E-03  -2.13288823785849E-16  -3.21405841118539E+09   2.13288823786343E-16
      2.28546386413499E+04
      1.00000000000000E+01   0.00000000000000E+00  -3.21405841118539E+09   2.13288823752395E-16  -9.79973135029965E-03
     -2.13288823785235E-16  -9.79973135029946E-03  -2.13288823785486E-16  -3.21405841118539E+09   2.13288823785858E-16
      4.12462638290135E+04
      1.00000000000000E+01   0.00000000000000E+00  -3.21405841118539E+09   2.13288823777945E-16  -9.79973135030455E-03
     -2.13288823786908E-16  -9.79973135030446E-03  -2.13288823787025E-16  -3.21405841118539E+09   2.13288823784318E-16
      7.44380301325169E+04
      1.00000000000000E+01   0.00000000000000E+00  -3.21405841118539E+09   2.13288823749188E-16  -9.79973135029346E-03
     -2.13288823783670E-16  -9.79973135029255E-03  -2.13288823784607E-16  -3.21405841118539E+09   2.13288823775360E-16
      1.34339933259890E+05
      1.00000000000000E+01   0.00000000000000E+00  -3.21405841118539E+09   2.13288823762762E-16  -9.79973135030836E-03
     -2.13288823785527E-16  -9.79973135030820E-03  -2.13288823785748E-16  -3.21405841118539E+09   2.13288823783956E-16
      2.42446201708233E+05
      1.00000000000000E+01   0.00000000000000E+00  -3.21405841118539E+09   2.13288823782488E-16  -9.79973135030347E-03
     -2.13288823786255E-16  -9.79973135030336E-03  -2.13288823786377E-16  -3.21405841118539E+09   2.13288823788025E-16
      4.37547937507419E+05
      1.00000000000000E+01   0.00000000000000E+00  -3.21405841118539E+09   2.13288823800914E-16  -9.79973135030449E-03
     -2.13288823786311E-16  -9.79973135030452E-03  -2.13288823786317E-16  -3.21405841118539E+09   2.13288823791066E-16
      7.89652286849972E+05
      1.00000000000000E+01   0.00000000000000E+00  -3.21405841118539E+09   2.13288823799478E-16  -9.79973135029917E-03
     -2.13288823783729E-16  -9.79973135029866E-03  -2.13288823784380E-16  -3.21405841118539E+09   2.13288823786195E-16
      1.42510267030300E+06
      1.00000000000000E+01   0.00000000000000E+00  -3.21405841118539E+09   2.13288823756275E-16  -9.79973135029979E-03
     -2.13288823785065E-16  -9.79973135029957E-03  -2.13288823785311E-16  -3.21405841118539E+09   2.13288823786551E-16
      2.57191380905934E+06
      1.00000000000000E+01   0.00000000000000E+00  -3.21405841118539E+09   2.13288823824951E-16  -9.79973135029724E-03
     -2.13288823784633E-16  -9.79973135029701E-03  -2.13288823784936E-16  -3.21405841118539E+09   2.13288823785059E-16
      4.64158883361278E+06
      1.00000000000000E+01   0.00000000000000E+00  -3.21405841118539E+09   2.13288823773740E-16  -9.79973135029304E-03
     -2.13288823784399E-16  -9.79973135029289E-03  -2.13288823784513E-16  -3.21405841118539E+09   2.13288823786915E-16
      8.37677640068293E+06
      1.00000000000000E+01   0.00000000000000E+00  -3.21405841118539E+09   2.13288823759837E-16  -9.79973135028549E-03
     -2.13288823781667E-16  -9.79973135028533E-03  -2.13288823781830E-16  -3.21405841118539E+09   2.13288823783803E-16
      1.51177507061567E+07
      1.00000000000000E+01   0.00000000000000E+00  -3.21405841118539E+09   2.13288823788287E-16  -9.79973135024993E-03
     -2.13288823772013E-16  -9.79973135024976E-03  -2.13288823772240E-16  -3.21405841118539E+09   2.13288823775543E-16
      2.72833337648676E+07
      1.00000000000000E+01   0.00000000000000E+00  -3.21405841118539E+09   2.13288823724178E-16  -9.79973135012960E-03
     -2.13288823742377E-16  -9.79973135012938E-03  -2.13288823742646E-16  -3.21405841118539E+09   2.13288823744913E-16
      4.92388263170673E+07
      1.00000000000000E+01   0.00000000000000E+00  -3.21405841118539E+09   2.13288823629284E-16  -9.79973134974300E-03
     -2.13288823646082E-16  -9.79973134974288E-03  -2.13288823646238E-16  -3.21405841118539E+09   2.13288823646887E-16
      8.88623816274339E+07
      1.00000000000000E+01   0.00000000000000E+00  -3.21405841118539E+09   2.13288823354826E-16  -9.79973134847494E-03
     -2.13288823330811E-16  -9.79973134847489E-03  -2.13288823330935E-16  -3.21405841118539E+09   2.13288823331745E-16
      1.60371874375133E+08
      1.00000000000000E+01   0.00000000000000E+00  -3.21405841118539E+09   2.13288822303161E-16  -9.79973134434279E-03
     -2.13288822304382E-16  -9.79973134434269E-03  -2.13288822304538E-16  -3.21405841118539E+09   2.13288822305386E-16
      2.89426612471675E+08
      1.00000000000000E+01   0.00000000000000E+00  -3.21405841118539E+09   2.13288818964493E-16  -9.79973133088160E-03
     -2.13288818961622E-16  -9.79973133088147E-03  -2.13288818961774E-16  -3.21405841118539E+09   2.13288818963284E-16
      5.22334507426686E+08
      1.00000000000000E+01   0.00000000000000E+00  -3.21405841118539E+09   2.13288808041675E-16  -9.79973128704741E-03
     -2.13288808074905E-16  -9.79973128704737E-03  -2.13288808075021E-16  -3.21405841118539E+09   2.13288808075605E-16
      9.42668455117888E+08
      1.00000000000000E+01   0.00000000000000E+00  -3.21405841118539E+09   2.13288772634135E-16  -9.79973114424448E-03
     -2.13288772622352E-16  -9.79973114424438E-03  -2.13288772622482E-16  -3.21405841118539E+09   2.13288772623717E-16
      1.70125427985259E+09
      1.00000000000000E+01   0.00000000000000E+00  -3.21405841118539E+09   2.13288657233902E-16  -9.79973067911578E-03
     -2.13288657227084E-16  -9.79973067911557E-03  -2.13288657227324E-16  -3.21405841118539E+09   2.13288657229543E-16
      3.07029062975785E+09
      1.00000000000000E+01   0.00000000000000E+00  -3.21405841118539E+09   2.13288282171038E-16  -9.79972916394792E-03
     -2.13288282182323E-16  -9.79972916394774E-03  -2.13288282182500E-16  -3.21405841118539E+09   2.13288282183236E-16
      5.54102033000949E+09
      1.00000000000000E+01   0.00000000000000E+00  -3.21405841118539E+09   2.13287068820643E-16  -9.79972422617523E-03
     -2.13287068836584E-16  -9.79972422617505E-03  -2.13287068836871E-16  -3.21405841118539E+09   2.13287068837525E-16
      1.00000000000000E+10
      1.00000000000000E+01   0.00000000000000E+00  -3.21405841118539E+09   2.13283196188211E-16  -9.79970811530309E-03
     -2.13283196190703E-16  -9.79970811530290E-03  -2.13283196190990E-16  -3.21405841118539E+09   2.13283196192176E-16
}
