DF-ISE text

Info {
  version   = 1.0
  type      = xyplot
  datasets  = [
    "time"
    "ntype OuterVoltage" "ntype InnerVoltage" "ntype QuasiFermiPotential" "ntype DisplacementCurrent" "ntype eCurrent"
    "ntype hCurrent" "ntype TotalCurrent" "ntype Charge" "ptype OuterVoltage" "ptype InnerVoltage"
    "ptype QuasiFermiPotential" "ptype DisplacementCurrent" "ptype eCurrent" "ptype hCurrent" "ptype TotalCurrent"
    "ptype Charge" ]
  functions = [
    Time
    OuterVoltage InnerVoltage QuasiFermiPotential DisplacementCurrent eCurrent
    hCurrent TotalCurrent Charge OuterVoltage InnerVoltage
    QuasiFermiPotential DisplacementCurrent eCurrent hCurrent TotalCurrent
    Charge ]
}

Data {
      5.00000000000000E-14
     -7.21526905730392E-08  -7.21526906480391E-08   0.00000000000000E+00  -3.30245399032321E-11  -1.03018842378751E-13
      2.79724374167065E-29  -3.31275587456108E-11  -3.52613663631449E-30   0.00000000000000E+00   6.77060119738546E-14
      0.00000000000000E+00  -5.70452755735702E-10   6.03580314481295E-10  -3.91302944550416E-25   3.31275587455924E-11
     -2.10808536495300E-27
      1.00000000000000E-13
     -3.40127662497531E-08  -3.40127663997532E-08   0.00000000000000E+00  -2.77839739258517E-11   1.46172400811643E-12
     -2.25525764845569E-29  -2.63222499177352E-11   2.45257016470931E-30   0.00000000000000E+00   1.49744715166715E-16
      0.00000000000000E+00  -1.15268798091994E-10   1.41591048009531E-10  -5.48380251604983E-25   2.63222499175362E-11
     -1.44040564701813E-27
      1.50000000000000E-13
     -1.94626430179145E-08  -1.94626432429145E-08   0.00000000000000E+00  -1.53980255189492E-11   2.16378636079159E-12
      1.65348006789720E-28  -1.32342391581576E-11  -1.10078364975856E-30   0.00000000000000E+00   2.24876933128229E-16
      0.00000000000000E+00  -1.87277948403454E-11   3.19620339982466E-11   1.60943884932132E-25   1.32342391579014E-11
     -2.37812815832893E-27
      2.00000000000000E-13
     -1.20113564988477E-08  -1.20113567988477E-08   0.00000000000000E+00  -8.99908652009202E-12   2.93146774389196E-12
     -1.17635526512490E-28  -6.06761877620007E-12   2.56446300822872E-30   0.00000000000000E+00   2.99629432075487E-16
      0.00000000000000E+00   5.56716657497766E-13   5.51090211844975E-12  -2.92027202729584E-25   6.06761877594723E-12
     -1.79268060798811E-27
      2.50000000000000E-13
     -7.95924780221927E-09  -7.95924817721923E-09   0.00000000000000E+00  -6.23788323676620E-12   3.67493695353425E-12
     -8.33379061816490E-29  -2.56294628323196E-12   6.48676079322006E-30   0.00000000000000E+00   3.74574330840139E-16
      0.00000000000000E+00   3.86847700885455E-12  -1.30553072582044E-12   1.73768381144851E-25   2.56294628303429E-12
     -1.82875244143405E-27
      3.00000000000000E-13
     -5.62313321567090E-09  -5.62313366567089E-09   0.00000000000000E+00  -5.35354857159400E-12   4.42841483794726E-12
     -1.12831284528090E-28  -9.25133733646747E-13   6.39906099694809E-30   0.00000000000000E+00   4.49723210313986E-16
      0.00000000000000E+00   4.41294648282935E-12  -3.48781274923216E-12   8.73270012830362E-27   9.25133733597202E-13
     -1.69196495229702E-27
      3.50000000000000E-13
     -4.20231442854117E-09  -4.20231495354119E-09   0.00000000000000E+00  -5.33360069964102E-12   5.17613512775653E-12
     -6.89332275349561E-29  -1.57465571884489E-13  -3.71968101429402E-31   0.00000000000000E+00   5.24781386375262E-16
      0.00000000000000E+00   4.73394630222471E-12  -4.57648073008792E-12  -4.96145049272784E-26   1.57465572136732E-13
     -1.98620079292039E-27
      4.00000000000000E-13
     -3.28470095368038E-09  -3.28470155368038E-09   0.00000000000000E+00  -5.71798731028446E-12   5.93547431844296E-12
      9.56060249508576E-29   2.17487008158495E-13  -1.71770635456830E-30   0.00000000000000E+00   5.99821351920844E-16
      0.00000000000000E+00   5.18845309735999E-12  -5.40594010485677E-12  -4.31627993682475E-26  -2.17487007496822E-13
     -1.58512845565232E-27
      4.50000000000000E-13
     -2.65079902808503E-09  -2.65079970308502E-09   0.00000000000000E+00  -6.25488169197456E-12   6.67298757597729E-12
     -1.75028916517079E-30   4.18105884002733E-13   1.15521800606530E-30   0.00000000000000E+00   6.74088497103767E-16
      0.00000000000000E+00   5.75613348881309E-12  -6.17423937189604E-12   8.92229026872678E-27  -4.18105883082947E-13
     -1.38089075078943E-27
      5.00000000000000E-13
     -2.18023611865293E-09  -2.18023686865294E-09   0.00000000000000E+00  -6.88998217102663E-12   7.43192778838937E-12
     -5.55364740282064E-29   5.41945617362740E-13  -2.38301515387292E-30   0.00000000000000E+00   7.49784531780999E-16
      0.00000000000000E+00   6.38678980910090E-12  -6.92873542563048E-12  -1.43543704071107E-26  -5.41945616529599E-13
     -1.90762177546071E-28
      5.50000000000000E-13
     -1.80564507338971E-09  -1.80564589838970E-09   0.00000000000000E+00  -7.54867042026262E-12   8.18103052920568E-12
     -2.11503333257937E-29   6.32360108943064E-13  -1.69351330732085E-31   0.00000000000000E+00   8.24546187529580E-16
      0.00000000000000E+00   7.04795863281329E-12  -7.68031874132821E-12   1.09310107607875E-26  -6.32360108514917E-13
     -8.22176517657028E-28
      6.00000000000000E-13
     -1.48879222482762E-09  -1.48879312482761E-09   0.00000000000000E+00  -8.21843592932998E-12   8.92674499096551E-12
     -4.38759269002410E-29   7.08309061635536E-13  -5.43133910705046E-30   0.00000000000000E+00   8.99423896835267E-16
      0.00000000000000E+00   7.72194517132866E-12  -8.43025423315482E-12   3.12384460670808E-26  -7.08309061826119E-13
     -3.65194048200119E-28
      6.50000000000000E-13
     -1.20737839899859E-09  -1.20737937399860E-09   0.00000000000000E+00  -8.89813157389585E-12   9.67625348125672E-12
     -2.93545623092034E-29   7.78121907360866E-13   5.76096937579684E-30   0.00000000000000E+00   9.74742601621996E-16
      0.00000000000000E+00   8.40258805913998E-12  -9.18070996742161E-12   1.73139601330266E-26  -7.78121908281609E-13
     -7.80032229351986E-28
      7.00000000000000E-13
     -9.48362019821665E-10  -9.48363069821662E-10   0.00000000000000E+00  -9.58361771399210E-12   1.04290635213672E-11
     -4.96267333124717E-29   8.45445807375139E-13   6.26902336799309E-30   0.00000000000000E+00   1.04999033335079E-15
      0.00000000000000E+00   9.08558501120007E-12  -9.93103082025596E-12  -2.49668086730492E-26  -8.45445809055916E-13
     -9.92132674570299E-28
      7.50000000000000E-13
     -7.03870426358675E-10  -7.03871551358672E-10   0.00000000000000E+00  -1.02669627612569E-11   1.11788127263117E-11
     -2.09451270098771E-29   9.11849965054888E-13   1.76609244906318E-30   0.00000000000000E+00   1.12471665327977E-15
      0.00000000000000E+00   9.76937485082685E-12  -1.06812248182987E-11   2.72526309975300E-26  -9.11849967471807E-13
     -6.88050263717216E-28
      8.00000000000000E-13
     -4.69195618189950E-10  -4.69196818189951E-10   0.00000000000000E+00  -1.09479783678862E-11   1.19259219252639E-11
      1.17138605335712E-29   9.77943557377771E-13   1.15219387515937E-30   0.00000000000000E+00   1.19928420834385E-15
      0.00000000000000E+00   1.04520360844131E-11  -1.14299796448885E-11   2.87680398912806E-26  -9.77943560475386E-13
     -4.03225518473096E-28
      8.50000000000000E-13
     -2.40995384360075E-10  -2.40996659360077E-10   0.00000000000000E+00  -1.16294586634716E-11   1.26734908846229E-11
      1.67434271001539E-29   1.04403222115129E-12  -1.46065522756424E-30   0.00000000000000E+00   1.27453212555620E-15
      0.00000000000000E+00   1.11365739041120E-11  -1.21806061289706E-11   4.77017001557298E-26  -1.04403222485857E-12
     -8.03668836512735E-28
      9.00000000000000E-13
     -1.76592503732144E-11  -1.76606003732154E-11   0.00000000000000E+00  -1.23109161643519E-11   1.34210900887258E-11
     -4.28388302742117E-29   1.11017392437390E-12  -4.36684502816306E-30   0.00000000000000E+00   1.34940256405186E-15
      0.00000000000000E+00   1.18193277372675E-11  -1.29295016658817E-11   3.52833597697457E-26  -1.11017392861420E-12
     -6.03931038437864E-28
      9.50000000000000E-13
      2.02576731013623E-10   2.02575306013623E-10   0.00000000000000E+00  -1.30029141032772E-11   1.41793731319748E-11
     -1.82719123797384E-29   1.17645902869759E-12  -6.06338246638985E-30   0.00000000000000E+00   1.42489161202974E-15
      0.00000000000000E+00   1.25043614480505E-11  -1.36808204814454E-11  -1.97338222925943E-26  -1.17645903339491E-12
     -7.62637428381076E-28
      1.00000000000000E-12
      4.20189557680368E-10   4.20188057680364E-10   0.00000000000000E+00  -1.36760092001082E-11   1.49188855150459E-11
     -5.40336395381115E-29   1.24287631493769E-12  -2.49188386648640E-30   0.00000000000000E+00   1.49923671191148E-15
      0.00000000000000E+00   1.31870617167914E-11  -1.44299380368106E-11  -2.94631360656329E-26  -1.24287632001916E-12
     -1.30131981839259E-27
      1.05000000000000E-12
      6.36186831571336E-10   6.36185256571333E-10   0.00000000000000E+00  -1.43621261468542E-11   1.56714865572818E-11
      1.76324029907974E-29   1.30936041042757E-12  -1.08868712613484E-30   0.00000000000000E+00   1.57495262692197E-15
      0.00000000000000E+00   1.38715959890727E-11  -1.51809564048980E-11  -1.11157656016527E-26  -1.30936041582530E-12
     -3.91685434936066E-28
      1.10000000000000E-12
      8.50683744788800E-10   8.50682094788803E-10   0.00000000000000E+00  -1.50425140583346E-11   1.64184293700214E-11
     -8.11945563892998E-29   1.37591531168681E-12  -1.14614561334751E-30   0.00000000000000E+00   1.64969579500119E-15
      0.00000000000000E+00   1.45539438649570E-11  -1.59298591822947E-11  -6.89635015020337E-26  -1.37591531733777E-12
     -1.23868401906897E-27
      1.15000000000000E-12
      1.06435299874120E-09   1.06435127374120E-09   0.00000000000000E+00  -1.57354558061615E-11   1.71779901910552E-11
      3.35042062049625E-29   1.44253438489366E-12  -1.72073048547423E-30   0.00000000000000E+00   1.72463686622254E-15
      0.00000000000000E+00   1.52374281652168E-11  -1.66799625559571E-11   1.04695387236054E-26  -1.44253439074033E-12
     -1.06364732223373E-27
      1.20000000000000E-12
      1.27737757369845E-09   1.27737577369845E-09   0.00000000000000E+00  -1.64103582519954E-11   1.79196229124772E-11
      3.67983208277458E-29   1.50926466048174E-12   8.04418820977406E-31   0.00000000000000E+00   1.79925785056456E-15
      0.00000000000000E+00   1.59208242401050E-11  -1.74300889065769E-11  -4.99990550248695E-26  -1.50926466647201E-12
     -1.07201811658135E-27
      1.25000000000000E-12
      1.48994655694699E-09   1.48994468194698E-09   0.00000000000000E+00  -1.70930361030140E-11   1.86690381518408E-11
      2.20232146034241E-29   1.57600204882686E-12  -5.17126384914047E-30   0.00000000000000E+00   1.87448432779141E-15
      0.00000000000000E+00   1.66040768506797E-11  -1.81800789055927E-11  -4.34289508283388E-26  -1.57600205491306E-12
     -8.63957910253358E-28
      1.30000000000000E-12
      1.70223897662730E-09   1.70223702662730E-09   0.00000000000000E+00  -1.77768433562327E-11   1.94196172093017E-11
     -5.56174500499284E-29   1.64277385306896E-12   2.71566955352523E-30   0.00000000000000E+00   1.94964812120097E-15
      0.00000000000000E+00   1.72870674707900E-11  -1.89298413299986E-11  -8.99873452523311E-27  -1.64277385920863E-12
     -1.32256131387585E-27
      1.35000000000000E-12
      1.91444423916106E-09   1.91444221416105E-09   0.00000000000000E+00  -1.84554228930602E-11   2.01650141054828E-11
     -9.62353494675013E-29   1.70959121242261E-12   1.40017260944564E-30   0.00000000000000E+00   2.02447471534068E-15
      0.00000000000000E+00   1.79700849862693E-11  -1.96796762048465E-11  -5.93664004482876E-26  -1.70959121857727E-12
     -1.55316944023845E-27
      1.40000000000000E-12
      2.12677336190421E-09   2.12677126190419E-09   0.00000000000000E+00  -1.91434820184531E-11   2.09199304527329E-11
     -9.94326449338779E-30   1.77644843427980E-12   1.05995788252850E-29   0.00000000000000E+00   2.10000273962184E-15
      0.00000000000000E+00   1.86539632292462E-11  -2.04304116696620E-11  -2.83426054687004E-26  -1.77644844041575E-12
     -1.31781947661535E-27
      1.45000000000000E-12
      2.33914023361341E-09   2.33913805861341E-09   0.00000000000000E+00  -1.98207905063729E-11   2.16641376006125E-11
      5.74863112469064E-29   1.84334709423952E-12  -1.53625850021249E-30   0.00000000000000E+00   2.17464768144386E-15
      0.00000000000000E+00   1.93369272858152E-11  -2.11802743861417E-11  -3.37976492248965E-26  -1.84334710032661E-12
     -7.86733703439527E-28
      1.50000000000000E-12
      2.55161456786324E-09   2.55161231786322E-09   0.00000000000000E+00  -2.05063467570725E-11   2.24165569943384E-11
     -2.42121448427830E-29   1.91021023726589E-12   3.76504297788297E-30   0.00000000000000E+00   2.24957214411611E-15
      0.00000000000000E+00   2.00190086015840E-11  -2.19292188448623E-11  -4.03205516936349E-26  -1.91021024327833E-12
     -1.21981344221596E-27
      1.55000000000000E-12
      2.76460901932839E-09   2.76460669432840E-09   0.00000000000000E+00  -2.11898642913657E-11   2.31670034886773E-11
      5.62843077070752E-30   1.97713919731152E-12   4.53619635889515E-32   0.00000000000000E+00   2.32468597255155E-15
      0.00000000000000E+00   2.07029911563918E-11  -2.26801303596183E-11   6.91008921601064E-26  -1.97713920322645E-12
     -1.19791873445703E-27
      1.60000000000000E-12
      2.97792037346452E-09   2.97791797346451E-09   0.00000000000000E+00  -2.18775447444423E-11   2.39216487575785E-11
     -1.24664723006782E-29   2.04410401313627E-12   8.86070355437519E-31   0.00000000000000E+00   2.39987307058701E-15
      0.00000000000000E+00   2.13864485652206E-11  -2.34305525841545E-11  -6.56075272341346E-26  -2.04410401893397E-12
     -7.72338840327300E-28
      1.65000000000000E-12
      3.19161227283624E-09   3.19160979783623E-09   0.00000000000000E+00  -2.25509951773574E-11   2.46620795709996E-11
     -4.92928329620327E-29   2.11108439364218E-12   3.68036731251693E-30   0.00000000000000E+00   2.47444027946180E-15
      0.00000000000000E+00   2.20693416147564E-11  -2.41804260140626E-11  -1.05550106748812E-26  -2.11108439930620E-12
     -8.67248164679010E-28
      1.70000000000000E-12
      3.40573786321477E-09   3.40573531321477E-09   0.00000000000000E+00  -2.32369770408888E-11   2.54150082956134E-11
     -1.36153510436498E-30   2.17803125472457E-12   5.32549452534290E-30   0.00000000000000E+00   2.54979693976885E-15
      0.00000000000000E+00   2.27519559149635E-11  -2.49299871752046E-11  -5.05568148447506E-26  -2.17803126024109E-12
     -1.39313243269663E-27
      1.75000000000000E-12
      3.62039043042780E-09   3.62038780542779E-09   0.00000000000000E+00  -2.39206451760882E-11   2.61656433285579E-11
     -8.81901490919687E-30   2.24499815246972E-12  -1.72980287819202E-30   0.00000000000000E+00   2.62466542428683E-15
      0.00000000000000E+00   2.34347930266152E-11  -2.56797911844426E-11   3.57052442456562E-26  -2.24499815782740E-12
     -1.26411091172603E-27
      1.80000000000000E-12
      3.83571002114077E-09   3.83570732114076E-09   0.00000000000000E+00  -2.46096797979814E-11   2.69216926298149E-11
      4.27344392625129E-30   2.31201283183348E-12  -3.81342907237785E-30   0.00000000000000E+00   2.69976920818929E-15
      0.00000000000000E+00   2.41185703023324E-11  -2.64305831393558E-11  -4.48632225184764E-26  -2.31201283702348E-12
     -1.11333984127998E-27
      1.85000000000000E-12
      4.05158398454667E-09   4.05158120954668E-09   0.00000000000000E+00  -2.52815298639113E-11   2.76605776380162E-11
      5.04917087401553E-29   2.37904777410491E-12   4.37591742088085E-30   0.00000000000000E+00   2.77453175589128E-15
      0.00000000000000E+00   2.48018134979152E-11  -2.71808612770357E-11  -6.80302404035106E-26  -2.37904777912056E-12
     -1.67120731775871E-27
      1.90000000000000E-12
      4.26796644431928E-09   4.26796359431929E-09   0.00000000000000E+00  -2.59716105908729E-11   2.84176336174664E-11
      4.18260091655638E-29   2.44602302659354E-12  -8.19539475507057E-31   0.00000000000000E+00   2.84987663341972E-15
      0.00000000000000E+00   2.54841023424043E-11  -2.79301253738344E-11  -2.74270091824377E-26  -2.44602303143007E-12
     -1.12202514524181E-27
      1.95000000000000E-12
      4.48507423434089E-09   4.48507130934088E-09   0.00000000000000E+00  -2.66574837012912E-11   2.91705241902522E-11
      3.66369424692384E-29   2.51304048896102E-12   6.65308799304622E-31   0.00000000000000E+00   2.92452752185163E-15
      0.00000000000000E+00   2.61671119375779E-11  -2.86801524311930E-11   3.56389370805649E-26  -2.51304049361498E-12
     -4.63079117363264E-28
      2.00000000000000E-12
      4.70280155354527E-09   4.70279855354529E-09   0.00000000000000E+00  -2.73300867284150E-11   2.99101525637694E-11
      9.85881492725576E-30   2.58006583535438E-12   2.29833948850687E-31   0.00000000000000E+00   2.99900609582948E-15
      0.00000000000000E+00   2.68494938287468E-11  -2.94295596685708E-11  -4.28464219019873E-26  -2.58006583982403E-12
     -1.65373993764606E-27
      2.05000000000000E-12
      4.92132266437817E-09   4.92131958937817E-09   0.00000000000000E+00  -2.80209806358663E-11   3.06680453015436E-11
     -3.06907059611049E-29   2.64706466567723E-12  -3.05437221498940E-31   0.00000000000000E+00   3.07469551080553E-15
      0.00000000000000E+00   2.75329094649144E-11  -3.01799741348757E-11  -5.04448536752385E-26  -2.64706466996141E-12
     -1.75460075162064E-27
      2.10000000000000E-12
      5.14050560952467E-09   5.14050245952464E-09   0.00000000000000E+00  -2.87014898129089E-11   3.14156048304040E-11
      2.67256235822461E-29   2.71411501749509E-12   4.35172437363341E-30   0.00000000000000E+00   3.14936355053553E-15
      0.00000000000000E+00   2.82158142464737E-11  -3.09299292680675E-11   1.57156562964523E-26  -2.71411502159376E-12
     -8.55514536764001E-28
      2.15000000000000E-12
      5.36050524048007E-09   5.36050201548005E-09   0.00000000000000E+00  -2.93880646567300E-11   3.21692368041525E-11
      3.16999435035740E-30   2.78117214742244E-12   6.69844995663517E-30   0.00000000000000E+00   3.22447478053199E-15
      0.00000000000000E+00   2.88993338344699E-11  -3.16805059858064E-11  -1.19758853600338E-26  -2.78117215133650E-12
     -6.08019663422682E-28
      2.20000000000000E-12
      5.58123866250483E-09   5.58123536250486E-09   0.00000000000000E+00  -3.00657444381094E-11   3.29139932238820E-11
      6.18384423491569E-30   2.84824878577257E-12  -6.98574239269853E-31   0.00000000000000E+00   3.29948436461877E-15
      0.00000000000000E+00   2.95827328414631E-11  -3.24309816309662E-11   5.80150751125744E-26  -2.84824878950299E-12
     -9.24488914466455E-28
      2.25000000000000E-12
      5.80265608778978E-09   5.80265271278976E-09   0.00000000000000E+00  -3.07523715435963E-11   3.36676601456619E-11
      3.38710737925059E-29   2.91528860206565E-12   3.46867814910182E-30   0.00000000000000E+00   3.37462174327013E-15
      0.00000000000000E+00   3.02653122104827E-11  -3.31806008160971E-11   2.05375650106347E-26  -2.91528860561443E-12
     -1.42286568776373E-27
      2.30000000000000E-12
      6.02480397954906E-09   6.02480052954906E-09   0.00000000000000E+00  -3.14287362108558E-11   3.44110580034501E-11
     -7.60845874859316E-29   2.98232179259437E-12   7.32746918506863E-30   0.00000000000000E+00   3.44923376419718E-15
      0.00000000000000E+00   3.09474900939087E-11  -3.39298118898720E-11  -2.25833770472540E-26  -2.98232179596331E-12
     -9.39899885563075E-28
      2.35000000000000E-12
      6.24780152782535E-09   6.24779800282533E-09   0.00000000000000E+00  -3.21141211715689E-11   3.51634668184851E-11
      4.85464767183429E-30   3.04934564691624E-12   5.51903890332243E-30   0.00000000000000E+00   3.52440417715178E-15
      0.00000000000000E+00   3.16306301148128E-11  -3.46799757649209E-11  -3.34902637434832E-26  -3.04934565010809E-12
     -5.75600980111111E-28
      2.40000000000000E-12
      6.47162305688375E-09   6.47161945688375E-09   0.00000000000000E+00  -3.27968899417772E-11   3.59132957279958E-11
      4.14712911247578E-29   3.11640578621861E-12   1.82657506718178E-30   0.00000000000000E+00   3.59949967303073E-15
      0.00000000000000E+00   3.23136774909332E-11  -3.54300832801691E-11  -1.07182187771317E-25  -3.11640578923599E-12
     -1.64817553677915E-27
      2.45000000000000E-12
      6.69621776844766E-09   6.69621409344765E-09   0.00000000000000E+00  -3.34828340082383E-11   3.66662967753006E-11
     -1.32311432394984E-29   3.18346276706227E-12   1.21872475508983E-30   0.00000000000000E+00   3.67438405035753E-15
      0.00000000000000E+00   3.29966203837773E-11  -3.61800831536855E-11   1.13840038414864E-25  -3.18346276990811E-12
     -1.42393018184262E-27
      2.50000000000000E-12
      6.92160944213625E-09   6.92160569213627E-09   0.00000000000000E+00  -3.41595888881052E-11   3.74101199257993E-11
      5.26445498747245E-29   3.25053103769417E-12   5.67931784133672E-30   0.00000000000000E+00   3.74903780836276E-15
      0.00000000000000E+00   3.36792283539932E-11  -3.69297593943648E-11  -1.97373062104854E-26  -3.25053104037167E-12
     -1.71874665559994E-27
      2.55000000000000E-12
      7.14786090426216E-09   7.14785707926212E-09   0.00000000000000E+00  -3.48371892059950E-11   3.81547709322327E-11
     -1.45260626187925E-29   3.31758172623767E-12  -8.96957226698867E-30   0.00000000000000E+00   3.82435021505379E-15
      0.00000000000000E+00   3.43624813708192E-11  -3.76800630995692E-11  -2.01042913798647E-26  -3.31758172874999E-12
     -1.50785586274399E-27
      2.60000000000000E-12
      7.37493431685958E-09   7.37493041685963E-09   0.00000000000000E+00  -3.55288646985082E-11   3.89134874314907E-11
      4.47938542334334E-29   3.38462273298253E-12   1.97475748157235E-30   0.00000000000000E+00   3.90005171990611E-15
      0.00000000000000E+00   3.50457501975910E-11  -3.84303729329241E-11   3.09650239913000E-26  -3.38462273533305E-12
     -1.81263987196725E-27
      2.65000000000000E-12
      7.60289971635625E-09   7.60289574135622E-09   0.00000000000000E+00  -3.62123972517990E-11   3.96641274394362E-11
     -4.07552026554917E-29   3.45173018763724E-12   8.89094486343449E-30   0.00000000000000E+00   3.97477600812206E-15
      0.00000000000000E+00   3.57291609687700E-11  -3.91808911585993E-11  -5.83349570550791E-26  -3.45173018982941E-12
     -1.20512826253677E-27
      2.70000000000000E-12
      7.83166358858864E-09   7.83165953858867E-09   0.00000000000000E+00  -3.68871243472253E-11   4.04059526465235E-11
      4.15382236535822E-29   3.51882829929825E-12   6.98271826179260E-30   0.00000000000000E+00   4.04969300371758E-15
      0.00000000000000E+00   3.64121604851624E-11  -3.99309887864979E-11  -8.85572946259345E-26  -3.51882830133559E-12
     -1.50379143080642E-27
      2.75000000000000E-12
      8.06121301639310E-09   8.06120889139309E-09   0.00000000000000E+00  -3.75777950768548E-11   4.11636712951172E-11
     -1.67232852577943E-29   3.58587621826242E-12   1.37295543129226E-30   0.00000000000000E+00   4.12498017945135E-15
      0.00000000000000E+00   3.70948498993456E-11  -4.06807261194944E-11   1.39618100709186E-25  -3.58587622014862E-12
     -1.52607322732132E-27
      2.80000000000000E-12
      8.29160682516465E-09   8.29160262516461E-09   0.00000000000000E+00  -3.82530046796703E-11   4.19059594211950E-11
     -2.63774989888610E-29   3.65295474152470E-12   2.82151413523278E-30   0.00000000000000E+00   4.19954224162331E-15
      0.00000000000000E+00   3.77774591000085E-11  -4.14304138432717E-11   7.48952672595191E-26  -3.65295474326312E-12
     -1.47780809806267E-27
      2.85000000000000E-12
      8.52287035825798E-09   8.52286608325793E-09   0.00000000000000E+00  -3.89351039384808E-11   4.26551131088446E-11
     -1.23598297720711E-29   3.72000917036384E-12   1.41831739488122E-30   0.00000000000000E+00   4.27486082823609E-15
      0.00000000000000E+00   3.84606654199271E-11  -4.21806745918854E-11   1.35315145062388E-25  -3.72000917195817E-12
     -1.88954956916687E-27
      2.90000000000000E-12
      8.75495919782303E-09   8.75495484782308E-09   0.00000000000000E+00  -3.96198322561017E-11   4.34068960136136E-11
     -5.63450711581577E-29   3.78706375751190E-12  -4.36382089725713E-30   0.00000000000000E+00   4.35007346734469E-15
      0.00000000000000E+00   3.91434823041047E-11  -4.29305460630708E-11   1.46270881926852E-25  -3.78706375896591E-12
     -1.33898839295686E-27
      2.95000000000000E-12
      8.98780601859762E-09   8.98780159359767E-09   0.00000000000000E+00  -4.02991113623621E-11   4.41532156466745E-11
     -4.83520525357534E-30   3.85410428431238E-12   2.73986260077267E-30   0.00000000000000E+00   4.42446000975273E-15
      0.00000000000000E+00   3.98254085690005E-11  -4.36795128546299E-11   4.39201985911605E-26  -3.85410428562934E-12
     -1.77260037877274E-27
      3.00000000000000E-12
      9.22157160424466E-09   9.22156710424467E-09   0.00000000000000E+00  -4.09894802476844E-11   4.49106205864361E-11
      2.90418804427171E-29   3.92114033875170E-12   3.25396485478079E-30   0.00000000000000E+00   4.49955965152994E-15
      0.00000000000000E+00   4.05082884203976E-11  -4.44294287603327E-11  -3.29318992753965E-26  -3.92114033993520E-12
     -1.49048525482033E-27
      3.05000000000000E-12
      9.45631022411137E-09   9.45630564911139E-09   0.00000000000000E+00  -4.16660058366685E-11   4.56542475577537E-11
      4.26412940473091E-30   3.98824172108516E-12  -5.32851865624883E-30   0.00000000000000E+00   4.57437783768430E-15
      0.00000000000000E+00   4.11920595639203E-11  -4.51803012860592E-11   1.34694416703702E-25  -3.98824172213878E-12
     -1.37418927670188E-27
      3.10000000000000E-12
      9.69189252945358E-09   9.69188787945355E-09   0.00000000000000E+00  -4.23501942820002E-11   4.64055289309380E-11
     -2.56369267467227E-29   4.05533464893779E-12   7.13997306890096E-30   0.00000000000000E+00   4.65005952207167E-15
      0.00000000000000E+00   4.18754842490428E-11  -4.59308188989079E-11   1.85479268953103E-25  -4.05533464986497E-12
     -1.14179086484297E-27
      3.15000000000000E-12
      9.92824411154494E-09   9.92823938654497E-09   0.00000000000000E+00  -4.30310204944709E-11   4.71534340030783E-11
     -4.70852304567954E-29   4.12241350860742E-12   4.30636241004446E-30   0.00000000000000E+00   4.72492119135943E-15
      0.00000000000000E+00   4.25580655329748E-11  -4.66804790423863E-11   8.77846196663150E-26  -4.12241350941144E-12
     -8.08120357206265E-28
      3.20000000000000E-12
      1.01654053652873E-08   1.01654005652873E-08   0.00000000000000E+00  -4.37152760479286E-11   4.79047431975224E-11
     -2.98118756492699E-29   4.18946714959383E-12   1.69351330732086E-30   0.00000000000000E+00   4.79975844521382E-15
      0.00000000000000E+00   4.32404046195390E-11  -4.74298717698166E-11  -1.84039367103281E-25  -4.18946715027777E-12
     -1.29435222078533E-27
      3.25000000000000E-12
      1.04034974298957E-08   1.04034925548957E-08   0.00000000000000E+00  -4.44057170437837E-11   4.86622530049181E-11
      3.09767232660905E-29   4.25653596113444E-12  -1.02820450801623E-30   0.00000000000000E+00   4.87459413748014E-15
      0.00000000000000E+00   4.39234861177308E-11  -4.81800220794325E-11  -6.65604928856392E-26  -4.25653596170182E-12
     -1.07852604629091E-27
      3.30000000000000E-12
      1.06425437090935E-08   1.06425387590935E-08   0.00000000000000E+00  -4.50768919367978E-11   4.94005597607589E-11
     -5.92650803327604E-29   4.32366782396110E-12  -8.04418820977406E-31   0.00000000000000E+00   4.94943108925233E-15
      0.00000000000000E+00   4.46072139519185E-11  -4.89308817763334E-11  -1.54697356831879E-25  -4.32366782441497E-12
     -1.33502073320828E-27
      3.35000000000000E-12
      1.08823097554142E-08   1.08823047304142E-08   0.00000000000000E+00  -4.57727954292188E-11   5.01635203074528E-11
      3.97417489216742E-29   4.39072487823400E-12   2.76707977892604E-30   0.00000000000000E+00   5.02500568368811E-15
      0.00000000000000E+00   4.52899783517663E-11  -4.96807032303437E-11   4.95754377689724E-26  -4.39072487857729E-12
     -1.11280759424053E-27
      3.40000000000000E-12
      1.11229632227021E-08   1.11229581227021E-08   0.00000000000000E+00  -4.64441541676112E-11   5.09019851254968E-11
     -4.22459701151757E-29   4.45783095788560E-12  -1.25803845686692E-30   0.00000000000000E+00   5.09933831821390E-15
      0.00000000000000E+00   4.59726972493689E-11  -5.04305282074904E-11   3.29135241311630E-26  -4.45783095812147E-12
     -1.12393639597436E-27
      3.45000000000000E-12
      1.13643848737551E-08   1.13643796987552E-08   0.00000000000000E+00  -4.71268321255179E-11   5.16516926782843E-11
      3.85744493911524E-29   4.52486055276644E-12   7.10368349802980E-30   0.00000000000000E+00   5.17442045583609E-15
      0.00000000000000E+00   4.66548525467326E-11  -5.11797130996303E-11  -7.70586092606932E-26  -4.52486055289771E-12
     -1.05208304564946E-27
      3.50000000000000E-12
      1.16066855306361E-08   1.16066802806362E-08   0.00000000000000E+00  -4.78103671628117E-11   5.24022637194352E-11
     -4.05693012306233E-29   4.59189655662349E-12   4.46361721715283E-30   0.00000000000000E+00   5.24946053154306E-15
      0.00000000000000E+00   4.73375289169514E-11  -5.19294254736041E-11  -8.43989387978819E-26  -4.59189655665283E-12
     -6.71865115108678E-28
      3.55000000000000E-12
      1.18499825875619E-08   1.18499772625619E-08   0.00000000000000E+00  -4.85008503282823E-11   5.31598270603142E-11
     -1.09491840936625E-28   4.65897673203188E-12   1.25501432596099E-30   0.00000000000000E+00   5.32468386487176E-15
      0.00000000000000E+00   4.80214737684170E-11  -5.26804505003789E-11  -3.45032485330880E-26  -4.65897673196200E-12
     -1.41239009830559E-27
      3.60000000000000E-12