DF-ISE text

Info {
  version   = 1.0
  type      = xyplot
  datasets  = [
    "time"
    "ntype OuterVoltage" "ntype InnerVoltage" "ntype QuasiFermiPotential" "ntype DisplacementCurrent" "ntype eCurrent"
    "ntype hCurrent" "ntype TotalCurrent" "ntype Charge" "ptype OuterVoltage" "ptype InnerVoltage"
    "ptype QuasiFermiPotential" "ptype DisplacementCurrent" "ptype eCurrent" "ptype hCurrent" "ptype TotalCurrent"
    "ptype Charge" ]
  functions = [
    Time
    OuterVoltage InnerVoltage QuasiFermiPotential DisplacementCurrent eCurrent
    hCurrent TotalCurrent Charge OuterVoltage InnerVoltage
    QuasiFermiPotential DisplacementCurrent eCurrent hCurrent TotalCurrent
    Charge ]
}

Data {
      5.00000000000000E-13
     -8.60586886478271E-09  -8.60586961478265E-09   0.00000000000000E+00  -1.23976138925917E-11   7.42470960463466E-12
     -6.83497978132325E-29  -4.97290428795700E-12  -2.58865605547616E-30   0.00000000000000E+00   7.51277985267778E-15
      0.00000000000000E+00   1.12958985185529E-12   3.84331443582490E-12   1.47744875373384E-25   4.97290428768034E-12
     -1.23984528533685E-27
      1.00000000000000E-12
      1.41432161200924E-09   1.41432011200924E-09   0.00000000000000E+00  -1.25317165082121E-11   1.49201799904246E-11
     -6.24973941563569E-30   2.38846348221249E-12   3.01808264411824E-30   0.00000000000000E+00   1.49954552783097E-15
      0.00000000000000E+00   1.40726447542569E-11  -1.64611082375845E-11   2.06076492544784E-26  -2.38846348332764E-12
     -5.52738550462280E-28
      1.50000000000000E-12
      2.23305735945924E-09   2.23305510945922E-09   0.00000000000000E+00  -2.07482006784868E-11   2.24225673300441E-11
     -1.92838611729348E-29   1.67436665155732E-12  -2.35277384481362E-30   0.00000000000000E+00   2.24965925604055E-15
      0.00000000000000E+00   1.98714010040489E-11  -2.15457676602773E-11  -7.24476512561422E-26  -1.67436665622848E-12
     -5.90624862451772E-28
      2.00000000000000E-12
      4.67569593987817E-09   4.67569293987817E-09   0.00000000000000E+00  -2.72905312086039E-11   2.99201966439119E-11
     -3.34157487029727E-29   2.62966543530800E-12   4.24890392283179E-30   0.00000000000000E+00   2.99951606502002E-15
      0.00000000000000E+00   2.68705233350364E-11  -2.95001887746094E-11  -3.49433617299754E-26  -2.62966543957300E-12
     -7.68298601436977E-28
      2.50000000000000E-12
      6.86230349160067E-09   6.86229974160068E-09   0.00000000000000E+00  -3.41679547329367E-11   3.74085252479654E-11
     -1.32221332425162E-28   3.24057051502874E-12   4.01906997398110E-30   0.00000000000000E+00   3.74948271792489E-15
      0.00000000000000E+00   3.36735322818772E-11  -3.69141027993748E-11   1.48331690653537E-26  -3.24057051749758E-12
     -2.08529551444591E-27
      3.00000000000000E-12
      9.18322978206438E-09   9.18322528206440E-09   0.00000000000000E+00  -4.09814369965936E-11   4.49049550438617E-11
      3.52449391936567E-29   3.92351804726810E-12  -1.73585114000388E-30   0.00000000000000E+00   4.49954644808017E-15
      0.00000000000000E+00   4.05075121036083E-11  -4.44310301519092E-11   1.83692743458298E-25  -3.92351804830077E-12
     -7.40912071952874E-28
      3.50000000000000E-12
      1.15740273833272E-08   1.15740221333272E-08   0.00000000000000E+00  -4.78153758606257E-11   5.24069868887775E-11
      4.62823858936046E-29   4.59161102815184E-12   7.13392480708910E-30   0.00000000000000E+00   5.24952343466858E-15
      0.00000000000000E+00   4.73359533661247E-11  -5.19275643942019E-11  -1.41030111411961E-25  -4.59161102807739E-12
     -7.51629591883490E-28
      4.00000000000000E-12
      1.40500836001309E-08   1.40500776001310E-08   0.00000000000000E+00  -5.46371182988331E-11   5.98999729046463E-11
     -1.97745582610870E-29   5.26285460581328E-12  -5.29222908537767E-31   0.00000000000000E+00   5.99948941107920E-15
      0.00000000000000E+00   5.41652261614453E-11  -5.94280807663293E-11  -1.50352859291415E-25  -5.26285460488419E-12
     -4.25507314987989E-28
      4.50000000000000E-12
      1.66081274596505E-08   1.66081207096505E-08   0.00000000000000E+00  -6.14616189135277E-11   6.73950856342437E-11
      3.19151146482507E-30   5.93346672071598E-12   2.91526219331661E-30   0.00000000000000E+00   6.74954590965815E-15
      0.00000000000000E+00   6.09948376086653E-11  -6.69283043278018E-11  -1.99632925956111E-25  -5.93346671913673E-12
     -1.20812820039545E-27
      5.00000000000000E-12
      1.92469154927411E-08   1.92469079927411E-08   0.00000000000000E+00  -6.82898340292601E-11   7.48939985050978E-11
      4.68169659500503E-29   6.60416447583769E-12   4.53619635889515E-31   0.00000000000000E+00   7.49954452391876E-15
      0.00000000000000E+00   6.78242369068980E-11  -7.44284013805912E-11  -1.67408006604928E-25  -6.60416447369335E-12
     -1.54997595800179E-27
      5.50000000000000E-12
      2.19643666735105E-08   2.19643584235104E-08   0.00000000000000E+00  -7.51114621995408E-11   8.23862533308733E-11
      8.35216111004935E-29   7.27479113133243E-12   4.43337590809352E-30   0.00000000000000E+00   8.24952298739231E-15
      0.00000000000000E+00   7.46534379086922E-11  -8.19282290373787E-11   1.91716114571888E-25  -7.27479112868630E-12
     -2.08844061058808E-27
      6.00000000000000E-12
      2.47583564473705E-08   2.47583474473705E-08   0.00000000000000E+00  -8.19426226943120E-11   8.98880156328025E-11
     -3.03475244886110E-29   7.94539293849055E-12  -6.00592397917717E-30   0.00000000000000E+00   8.99952470071820E-15
      0.00000000000000E+00   8.14827460661093E-11  -8.94281390014542E-11   1.20357603884780E-25  -7.94539293534478E-12
     -2.79040187647257E-27
      6.50000000000000E-12
      2.76267419577370E-08   2.76267322077369E-08   0.00000000000000E+00  -8.87615224860092E-11   9.73775015767964E-11
     -5.00602976679067E-29   8.61597909078716E-12   2.66425932812442E-30   0.00000000000000E+00   9.74951597236810E-15
      0.00000000000000E+00   8.83122538445939E-11  -9.69282329317364E-11  -3.37184071965441E-25  -8.61597908714283E-12
     -1.94066947800071E-27
      7.00000000000000E-12
      3.05673723355680E-08   3.05673618355678E-08   0.00000000000000E+00  -9.55932142561496E-11   1.04879724729446E-10
      1.56536331904231E-28   9.28651047329601E-12   6.55933993496238E-30   0.00000000000000E+00   1.04995318804251E-14
      0.00000000000000E+00   9.51417688971534E-11  -1.04428279366281E-10  -2.97223879694516E-25  -9.28651046912802E-12
     -1.44606682007403E-27
      7.50000000000000E-12
      3.35782799165425E-08   3.35782686665427E-08   0.00000000000000E+00  -1.02420086845225E-10   1.12377102237925E-10
      1.28965631117031E-28   9.95701539270047E-12   1.28525563502029E-30   0.00000000000000E+00   1.12495068176448E-14
      0.00000000000000E+00   1.01971051002517E-10  -1.11928066390506E-10   3.90083864123221E-25  -9.95701538798861E-12
     -2.49444832949463E-27
      8.00000000000000E-12
      3.66575663513753E-08   3.66575543513753E-08   0.00000000000000E+00  -1.09246910813496E-10   1.19874403018749E-10
      4.54371043625083E-29   1.06274922052525E-11  -2.50095625920419E-30   0.00000000000000E+00   1.19994970525389E-14
      0.00000000000000E+00   1.08800664243262E-10  -1.19428156443235E-10   1.00193440308745E-25  -1.06274921999726E-11
     -2.17848713244305E-27
      8.50000000000000E-12
      3.98034875193907E-08   3.98034747693910E-08   0.00000000000000E+00  -1.16064337136006E-10   1.27362294200253E-10
      2.82711936707615E-29   1.12979570642470E-11   4.47571374077655E-31   0.00000000000000E+00   1.27495189298182E-14
      0.00000000000000E+00   1.15630257222359E-10  -1.26928214280739E-10  -3.72714284151101E-25  -1.12979570583806E-11
     -2.55623737216459E-27
      9.00000000000000E-12
      4.30142764272458E-08   4.30142629272458E-08   0.00000000000000E+00  -1.22893928233461E-10   1.34862296706697E-10
     -5.00381518576182E-29   1.19683684732362E-11   2.41930472474408E-31   0.00000000000000E+00   1.34995255035988E-14
      0.00000000000000E+00   1.22459865876777E-10  -1.34428234343533E-10  -4.11726113201146E-25  -1.19683684667565E-11
     -2.50627872959863E-27
      9.50000000000000E-12
      4.62884583749420E-08   4.62884441249422E-08   0.00000000000000E+00  -1.29715252567091E-10   1.42354038233987E-10
      7.07398478456727E-29   1.26387856668961E-11  -1.49392066752947E-30   0.00000000000000E+00   1.42495425114222E-14
      0.00000000000000E+00   1.29289582377721E-10  -1.41928368037500E-10  -6.53456739158920E-26  -1.26387856597797E-11
     -2.59492205471325E-27
      1.00000000000000E-11
      4.96244634209497E-08   4.96244484209496E-08   0.00000000000000E+00  -1.36546672323584E-10   1.49855826473652E-10
      6.23525426392393E-29   1.33091541500682E-11  -1.27013498049064E-31   0.00000000000000E+00   1.49995577943228E-14
      0.00000000000000E+00   1.36119288259420E-10  -1.49428442401712E-10  -2.27269197705596E-25  -1.33091541422923E-11
     -3.60766720553837E-27
      1.05000000000000E-11
      5.30209479992250E-08   5.30209322492250E-08   0.00000000000000E+00  -1.43371942978277E-10   1.57351452031545E-10
      1.66657705923658E-28   1.39795090532682E-11   4.38196568269271E-30   0.00000000000000E+00   1.57495382308585E-14
      0.00000000000000E+00   1.42948772114460E-10  -1.56928281159271E-10  -1.05594528484277E-24  -1.39795090448121E-11
     -2.76020895350777E-27
      1.10000000000000E-11
      5.64765948191169E-08   5.64765783191168E-08   0.00000000000000E+00  -1.50193687130618E-10   1.64843527851782E-10
     -2.43809245228411E-28   1.46498407211642E-11   4.66623398785014E-30   0.00000000000000E+00   1.64995474856217E-14
      0.00000000000000E+00   1.49778547870573E-10  -1.64428388582581E-10  -4.07664186958135E-25  -1.46498407120087E-11
     -3.17998251629811E-27
      1.15000000000000E-11
      5.99901166185843E-08   5.99900993685845E-08   0.00000000000000E+00  -1.57018296586603E-10   1.72338433523106E-10
     -7.85940189960482E-29   1.53201369365032E-11  -3.29932681836974E-30   0.00000000000000E+00   1.72495244276994E-14
      0.00000000000000E+00   1.56608074300892E-10  -1.71928211227522E-10   5.01170798398342E-26  -1.53201369266304E-11
     -3.37248659324600E-27
      1.20000000000000E-11
      6.35604834282743E-08   6.35604654282747E-08   0.00000000000000E+00  -1.63844555293058E-10   1.79835009266757E-10
     -1.46275890369239E-28   1.59904539736989E-11  -3.48984706544333E-30   0.00000000000000E+00   1.79995758463766E-14
      0.00000000000000E+00   1.63438081404322E-10  -1.79428535367414E-10   2.98682283213606E-25  -1.59904539630922E-11
     -3.74101928196626E-27
      1.25000000000000E-11
      6.71863851051731E-08   6.71863663551731E-08   0.00000000000000E+00  -1.70682117872695E-10   1.87342819052689E-10
     -6.12158605951916E-29   1.66607011799939E-11  -5.07449166015070E-30   0.00000000000000E+00   1.87495327249739E-14
      0.00000000000000E+00   1.70267449864627E-10  -1.86928151033265E-10   4.26764758654424E-26  -1.66607011686377E-11
     -3.04892877935872E-27
      1.30000000000000E-11
      7.08669325615565E-08   7.08669130615560E-08   0.00000000000000E+00  -1.77497842210410E-10   1.94828802018437E-10
      3.86238523087527E-28   1.73309598080270E-11   3.00901025140045E-30   0.00000000000000E+00   1.94994747525087E-14
      0.00000000000000E+00   1.77097082492386E-10  -1.94428042288292E-10  -1.21708236146220E-25  -1.73309597959065E-11
     -3.27687567052411E-27
      1.35000000000000E-11
      7.46011274295250E-08   7.46011071795248E-08   0.00000000000000E+00  -1.84326041743204E-10   2.02327252487304E-10
     -1.61935948830951E-28   1.80012107441002E-11  -5.95753788468229E-31   0.00000000000000E+00   2.02495212273618E-14
      0.00000000000000E+00   1.83926958629680E-10  -2.01928169360881E-10  -5.58491054481400E-25  -1.80012107312016E-11
     -1.64069988517969E-27
      1.40000000000000E-11
      7.83879849886001E-08   7.83879639886006E-08   0.00000000000000E+00  -1.91150514990472E-10   2.09821966867836E-10
     -9.43788107086114E-29   1.86714518773645E-11   6.25692684436937E-30   0.00000000000000E+00   2.09995300268589E-14
      0.00000000000000E+00   1.90756833938705E-10  -2.09428285802380E-10   1.05132587339421E-26  -1.86714518636747E-11
     -2.45890874308814E-27
      1.45000000000000E-11
      8.22266180615044E-08   8.22265963115048E-08   0.00000000000000E+00  -1.97980923787275E-10   2.17322590905455E-10
      5.95339735353263E-29   1.93416671181803E-11   2.83965892066836E-30   0.00000000000000E+00   2.17495445317262E-14
      0.00000000000000E+00   1.97586664525385E-10  -2.16928331629071E-10  -3.46260791932115E-25  -1.93416671036867E-11
     -2.96490632626836E-27
      1.50000000000000E-11
      8.61161224754073E-08   8.61160999754072E-08   0.00000000000000E+00  -2.04806285546585E-10   2.24818137819610E-10
     -1.75270335712275E-28   2.00118522730245E-11   5.02005730384396E-31   0.00000000000000E+00   2.24995022183633E-14
      0.00000000000000E+00   2.04416177774102E-10  -2.24428030031818E-10   1.30545595016338E-25  -2.00118522577153E-11
     -2.16206005336204E-27
      1.55000000000000E-11
      9.00558071805936E-08   9.00557839305940E-08   0.00000000000000E+00  -2.11632901559045E-10   2.32314954938666E-10
     -9.48133652599642E-29   2.06820533796208E-11  -7.69641315559210E-30   0.00000000000000E+00   2.32495117472089E-14
      0.00000000000000E+00   2.11246219457686E-10  -2.31928272821170E-10  -3.57644447337804E-25  -2.06820533634845E-11
     -2.41451450138909E-27
      1.60000000000000E-11
      9.40448208140350E-08   9.40447968140351E-08   0.00000000000000E+00  -2.18459101141832E-10   2.39811339151380E-10
     -2.38264651045410E-28   2.13522380095483E-11   1.39714847853971E-30   0.00000000000000E+00   2.39995261700647E-14
      0.00000000000000E+00   2.18076025875478E-10  -2.39428263868050E-10  -2.61447280126667E-24  -2.13522379925744E-11
     -2.59838166046963E-27
      1.65000000000000E-11
      9.80823917955845E-08   9.80823670455847E-08   0.00000000000000E+00  -2.25286538919550E-10   2.47308921231402E-10
     -2.53812047216030E-29   2.20223823118524E-11  -8.04116407886813E-30   0.00000000000000E+00   2.47494922386998E-14
      0.00000000000000E+00   2.24905699302082E-10  -2.46928081596112E-10  -4.02296826653634E-25  -2.20223822940300E-11
     -2.56564846754385E-27
      1.70000000000000E-11
      1.02167927113631E-07   1.02167901613631E-07   0.00000000000000E+00  -2.32106844912311E-10   2.54799397658704E-10
      1.90479745009621E-28   2.26925527463927E-11   2.83663478976243E-30   0.00000000000000E+00   2.54995104445434E-14
      0.00000000000000E+00   2.31735646206478E-10  -2.54428198934192E-10   1.38004327962827E-24  -2.26925527277124E-11
     -2.43861077644754E-27
      1.75000000000000E-11
      1.06300647646613E-07   1.06300621396614E-07   0.00000000000000E+00  -2.38935804986914E-10   2.62298497802512E-10
      2.14911367563453E-28   2.33626928155971E-11   8.67925570001938E-31   0.00000000000000E+00   2.62495152904338E-14
      0.00000000000000E+00   2.38565478805565E-10  -2.61928171601614E-10  -8.24028735440420E-25  -2.33626927960491E-11
     -1.91064590636664E-27
      1.80000000000000E-11
      1.10479956747001E-07   1.10479929747002E-07   0.00000000000000E+00  -2.45762316743627E-10   2.69795145259197E-10
      2.92310361543281E-28   2.40328285155698E-11   2.15620533592816E-30   0.00000000000000E+00   2.69995006432585E-14
      0.00000000000000E+00   2.45395231759882E-10  -2.69428060255027E-10  -2.11733003385633E-25  -2.40328284951451E-11
     -2.06214276823011E-27
      1.85000000000000E-11
      1.14705283707921E-07   1.14705255957921E-07   0.00000000000000E+00  -2.52585102904568E-10   2.77288073401511E-10
     -4.45659834331762E-29   2.47029704969427E-11  -1.06116753489087E-29   0.00000000000000E+00   2.77495356829842E-14
      0.00000000000000E+00   2.52225444980365E-10  -2.76928415455998E-10  -5.84414197012379E-25  -2.47029704756329E-11
     -2.16220521164553E-27
      1.90000000000000E-11
      1.18975948208153E-07   1.18975919708153E-07   0.00000000000000E+00  -2.59418530542383E-10   2.84791619423517E-10
     -2.09777186012285E-28   2.53730888811338E-11  -3.78621189422448E-30   0.00000000000000E+00   2.84995591762042E-14
      0.00000000000000E+00   2.59055350574527E-10  -2.84428439433459E-10   1.18529073675594E-24  -2.53730888589302E-11
     -2.14960063402961E-27
      1.95000000000000E-11
      1.23291357690425E-07   1.23291328440425E-07   0.00000000000000E+00  -2.66232679406088E-10   2.92275850343387E-10
      2.12883446323807E-28   2.60431709372990E-11  -4.74183726049839E-30   0.00000000000000E+00   2.92494727611618E-14
      0.00000000000000E+00   2.65884609419091E-10  -2.91927780333284E-10  -5.92651548709369E-25  -2.60431709141938E-11
     -2.13747991735864E-27
      2.00000000000000E-11
      1.27651120213610E-07   1.27651090213610E-07   0.00000000000000E+00  -2.73062165395472E-10   2.99775448688118E-10
      2.43608062565747E-28   2.67132832926451E-11  -3.67129491979914E-30   0.00000000000000E+00   2.99995280004282E-14
      0.00000000000000E+00   2.72714997675895E-10  -2.99428280944525E-10  -1.00690989175431E-24  -2.67132832686306E-11
     -2.08926317419449E-27
      2.05000000000000E-11
      1.32054620942421E-07   1.32054590192422E-07   0.00000000000000E+00  -2.79886936053375E-10   3.07270319296129E-10
     -7.79301162092593E-29   2.73833832427545E-11   3.68641557432879E-30   0.00000000000000E+00   3.07495407811102E-14
      0.00000000000000E+00   2.79544986573362E-10  -3.06928369791187E-10   1.37183579953304E-24  -2.73833832178237E-11
     -2.13568963186233E-27
      2.10000000000000E-11
      1.36501335703338E-07   1.36501304203337E-07   0.00000000000000E+00  -2.86722167579532E-10   3.14775629603768E-10
     -3.48287425602720E-29   2.80534620242357E-11  -7.61476162113199E-30   0.00000000000000E+00   3.14995393996301E-14
      0.00000000000000E+00   2.86374750989237E-10  -3.14428212987619E-10   7.18669535949776E-27  -2.80534619983814E-11
     -2.09519047077011E-27
      2.15000000000000E-11
      1.40990812567076E-07   1.40990780317076E-07   0.00000000000000E+00  -2.93547657942600E-10   3.22271190791810E-10
      1.44078975692955E-28   2.87235328492100E-11   2.34672558300176E-30   0.00000000000000E+00   3.22494795178001E-14
      0.00000000000000E+00   2.93204476597782E-10  -3.21928009420204E-10  -2.90495043703692E-24  -2.87235328224253E-11
     -1.87065479926662E-27
      2.20000000000000E-11
      1.45522654585367E-07   1.45522621585367E-07   0.00000000000000E+00  -3.00371804085382E-10   3.29765426222254E-10
     -2.22974768682998E-28   2.93936221368716E-11   2.59168018638209E-30   0.00000000000000E+00   3.29995071240920E-14
      0.00000000000000E+00   3.00034649287113E-10  -3.29428271396264E-10   9.72240292727514E-25  -2.93936221091500E-11
     -2.37503144828126E-27
      2.25000000000000E-11
      1.50096293350196E-07   1.50096259600195E-07   0.00000000000000E+00  -3.07188270225263E-10   3.37251942578225E-10
      1.76236012493059E-28   3.00636723529616E-11   1.51508958387098E-30   0.00000000000000E+00   3.37494947889882E-14
      0.00000000000000E+00   3.06864340347944E-10  -3.36928012672243E-10   1.39767782521443E-24  -3.00636723242973E-11
     -2.24634862997212E-27
      2.30000000000000E-11
      1.54711434849468E-07   1.54711400349469E-07   0.00000000000000E+00  -3.14019985545240E-10   3.44753728747765E-10
      1.60881751678595E-28   3.07337432025249E-11  -1.65117547463783E-30   0.00000000000000E+00   3.44995440103398E-14
      0.00000000000000E+00   3.13694627442989E-10  -3.44428370615901E-10  -8.52267699648623E-26  -3.07337431729117E-11
     -2.49681924812488E-27
      2.35000000000000E-11
      1.59367547164790E-07   1.59367511914790E-07   0.00000000000000E+00  -3.20850568588790E-10   3.52254353475823E-10
     -9.03551574553453E-29   3.14037848870324E-11  -8.23168432594173E-30   0.00000000000000E+00   3.52495141581822E-14
      0.00000000000000E+00   3.20524347170285E-10  -3.51928132026749E-10  -2.36708752616211E-25  -3.14037848564645E-11
     -2.09693237017193E-27
      2.40000000000000E-11
      1.64064302559511E-07   1.64064266559513E-07   0.00000000000000E+00  -3.27676713698076E-10   3.59750539267060E-10
     -8.61061796198962E-29   3.20738255689833E-11  -5.84866917206881E-30   0.00000000000000E+00   3.59994710991716E-14
      0.00000000000000E+00   3.27354058768005E-10  -3.59427884305462E-10   1.65575198347013E-24  -3.20738255374554E-11
     -1.46360677932843E-27
      2.45000000000000E-11
      1.68801402826491E-07   1.68801366076491E-07   0.00000000000000E+00  -3.34493947348580E-10   3.67237841715214E-10
     -2.81269457016319E-28   3.27438943666338E-11   7.82645078454709E-30   0.00000000000000E+00   3.67495209963447E-14
      0.00000000000000E+00   3.34184345599146E-10  -3.66928239933287E-10   7.21903909380881E-25  -3.27438943341404E-11
     -1.44156691328601E-27
      2.50000000000000E-11
      1.73578304503106E-07   1.73578267003106E-07   0.00000000000000E+00  -3.41320859131965E-10   3.74734766750716E-10
      5.41680295567706E-28   3.34139076187511E-11  -3.88298408321425E-30   0.00000000000000E+00   3.74995194473938E-14
      0.00000000000000E+00   3.41014180155554E-10  -3.74428087740842E-10   8.95095336119484E-25  -3.34139075852875E-11
     -2.54322151274547E-27
      2.55000000000000E-11
      1.78394848258392E-07   1.78394810008393E-07   0.00000000000000E+00  -3.48154020537727E-10   3.82237987375723E-10
      3.62997901896661E-28   3.40839668379953E-11   1.25199019505506E-30   0.00000000000000E+00   3.82495680294370E-14
      0.00000000000000E+00   3.47844546073260E-10  -3.81928512876815E-10  -9.95704950931522E-25  -3.40839668035564E-11
     -2.27707379997637E-27
      2.60000000000000E-11
      1.83250473300209E-07   1.83250434300209E-07   0.00000000000000E+00  -3.54976521783736E-10   3.89730486451651E-10
     -3.71785560601795E-28   3.47539646679153E-11  -4.06140780666412E-30   0.00000000000000E+00   3.89994884392178E-14
      0.00000000000000E+00   3.54674122850762E-10  -3.89428087483257E-10  -2.06664925629033E-24  -3.47539646324966E-11
     -2.94402772649382E-27
      2.65000000000000E-11
      1.88145097498256E-07   1.88145057748255E-07   0.00000000000000E+00  -3.61802855882723E-10   3.97226858343484E-10
     -1.19100136296679E-28   3.54240024607617E-11   1.00310422149701E-29   0.00000000000000E+00   3.97495252259409E-14
      0.00000000000000E+00   3.61504243527727E-10  -3.96928245952084E-10  -8.79411715144321E-25  -3.54240024243585E-11
     -2.32884692108590E-27
      2.70000000000000E-11
      1.93078241320250E-07   1.93078200820250E-07   0.00000000000000E+00  -3.68626359573466E-10   4.04720368913175E-10
     -1.84251129773565E-28   3.60940093397091E-11   1.51811371477691E-30   0.00000000000000E+00   4.04995143834944E-14
      0.00000000000000E+00   3.68334130401940E-10  -4.04428139704256E-10  -1.68093683391297E-24  -3.60940093023176E-11
     -2.38504736984170E-27
      2.75000000000000E-11
      1.98049711177078E-07   1.98049669927077E-07   0.00000000000000E+00  -3.75461053032002E-10   4.12225094706665E-10
      3.83566817327358E-28   3.67640416746634E-11  -1.36085890766854E-30   0.00000000000000E+00   4.12495439672940E-14
      0.00000000000000E+00   3.75164309928704E-10  -4.11928351564981E-10  -1.16055087017369E-24  -3.67640416362788E-11
     -2.89114172521092E-27
      2.80000000000000E-11
      2.03059077937843E-07   2.03059035937843E-07   0.00000000000000E+00  -3.82280308272998E-10   4.19714329611858E-10
      5.57517394772561E-29   3.74340213388598E-11   4.28216936279702E-30   0.00000000000000E+00   4.19994671757098E-14
      0.00000000000000E+00   3.81993885267341E-10  -4.19427906566819E-10   7.60263166251699E-26  -3.74340212994782E-11
     -2.95505975603865E-27
      2.85000000000000E-11
      2.08106292553959E-07   2.08106249803960E-07   0.00000000000000E+00  -3.89102344364175E-10   4.27206411105467E-10
     -1.89530162841850E-28   3.81040667412927E-11  -4.28519349370295E-30   0.00000000000000E+00   4.27495416309829E-14
      0.00000000000000E+00   3.88824355932470E-10  -4.26928422633380E-10  -7.98949980686559E-25  -3.81040667009104E-11
     -3.08006523116618E-27
      2.90000000000000E-11
      2.13190877924371E-07   2.13190834424372E-07   0.00000000000000E+00  -3.95930224630443E-10   4.34704283682532E-10
      2.43093034949329E-28   3.87740590520889E-11   4.79324748589921E-30   0.00000000000000E+00   4.34995639981829E-14
      0.00000000000000E+00   3.95654465785016E-10  -4.34428524795722E-10   2.99348883457535E-24  -3.87740590107025E-11
     -2.09581948999855E-27
      2.95000000000000E-11
      2.18312646588897E-07   2.18312602338897E-07   0.00000000000000E+00  -4.02753634187332E-10   4.42197692133852E-10
     -3.28136970110363E-28   3.94440579465195E-11   9.70746020803561E-31   0.00000000000000E+00   4.42495612931969E-14
      0.00000000000000E+00   4.02484333489537E-10  -4.41928391393661E-10  -8.44439279879069E-25  -3.94440579041252E-11
     -2.09066637093484E-27
      3.00000000000000E-11
      2.23471350815179E-07   2.23471305815180E-07   0.00000000000000E+00  -4.09587235765926E-10   4.49701289213771E-10
      1.14400509296864E-28   4.01140534478457E-11   1.36690716948040E-30   0.00000000000000E+00   4.49995571416598E-14
      0.00000000000000E+00   4.09314451664274E-10  -4.49428505068714E-10  -3.18398312911514E-25  -4.01140534044397E-11
     -1.92929874579441E-27
      3.05000000000000E-11
      2.28666762467451E-07   2.28666716717452E-07   0.00000000000000E+00  -4.16409034048761E-10   4.57193079865299E-10
     -7.52519726038853E-28   4.07840458165387E-11   3.58964338533903E-30   0.00000000000000E+00   4.57495416938708E-14
      0.00000000000000E+00   4.16144297155314E-10  -4.56928342927434E-10   9.73389834367359E-25  -4.07840457721182E-11
     -2.07160224970386E-27
      3.10000000000000E-11
      2.33898613842057E-07   2.33898567342059E-07   0.00000000000000E+00  -4.23233674819699E-10   4.64687700002481E-10
     -4.13116526819345E-28   4.14540251827820E-11   4.74183726049839E-30   0.00000000000000E+00   4.64995248245083E-14
      0.00000000000000E+00   4.22974101829584E-10  -4.64428126966928E-10  -4.11325775797059E-25  -4.14540251373440E-11
     -2.58021268198681E-27
      3.15000000000000E-11
      2.39166742954496E-07   2.39166695704495E-07   0.00000000000000E+00  -4.30060337635618E-10   4.72184348333352E-10
     -3.74940104752355E-28   4.21240106977345E-11  -2.68240411356000E-30   0.00000000000000E+00   4.72495175399371E-14
      0.00000000000000E+00   4.29804185067548E-10  -4.71928195718825E-10   1.94002250640731E-24  -4.21240106512756E-11
     -1.73280281605070E-27
      3.20000000000000E-11
      2.44470896149892E-07   2.44470848149893E-07   0.00000000000000E+00  -4.36890125773616E-10   4.79684113613985E-10
     -7.01467613561412E-28   4.27939878403692E-11  -5.76096937579684E-30   0.00000000000000E+00   4.79995166085756E-14
      0.00000000000000E+00   4.36634053227247E-10  -4.79428041020132E-10  -1.41394445745138E-24  -4.27939877928866E-11
     -2.13859279753202E-27
      3.25000000000000E-11
      2.49810906999651E-07   2.49810858249653E-07   0.00000000000000E+00  -4.43716737911275E-10   4.87180720406991E-10
      2.98651639070429E-28   4.34639824957154E-11   1.56649980927179E-30   0.00000000000000E+00   4.87495113622687E-14
      0.00000000000000E+00   4.43464184866692E-10  -4.86928167313898E-10   2.07247112846632E-26  -4.34639824472060E-11
     -1.51317833313843E-27
      3.30000000000000E-11
      2.55186546556203E-07   2.55186497056204E-07   0.00000000000000E+00  -4.50536110155523E-10   4.94670073209088E-10
      3.11269815672671E-28   4.41339630535647E-11   2.95760002599964E-30   0.00000000000000E+00   4.94995202454303E-14
      0.00000000000000E+00   4.50294251597877E-10  -4.94428214601901E-10  -1.62396859920573E-24  -4.41339630040262E-11
     -1.33199660230235E-27
      3.35000000000000E-11
      2.60597629091434E-07   2.60597578841434E-07   0.00000000000000E+00  -4.57369064469983E-10   5.02173004897271E-10
     -1.80259665746325E-29   4.48039404272888E-11  -1.90217833983003E-30   0.00000000000000E+00   5.02495544138280E-14
      0.00000000000000E+00   4.57124359030156E-10  -5.01928299406876E-10   1.50106652904466E-24  -4.48039403767184E-11
     -7.10041743665140E-28
      3.40000000000000E-11
      2.66043942937528E-07   2.66043891937529E-07   0.00000000000000E+00  -4.64196239178500E-10   5.09670145754893E-10
      1.87663187732334E-28   4.54739065763931E-11   5.18336037276419E-30   0.00000000000000E+00   5.09995185433986E-14
      0.00000000000000E+00   4.63954305227887E-10  -5.09428211752675E-10   2.01066781449615E-27  -4.54739065247882E-11
     -7.09654654909181E-28
      3.45000000000000E-11
      2.71525380741448E-07   2.71525328991447E-07   0.00000000000000E+00  -4.71022911062533E-10   5.17166802295389E-10
      3.54081486287423E-29   4.61438912328556E-11   5.53415955785208E-31   0.00000000000000E+00   5.17495272091671E-14
      0.00000000000000E+00   4.70784402192418E-10  -5.16928293372630E-10  -2.01835614675404E-24  -4.61438911802136E-11
     -1.17996749339943E-27
      3.50000000000000E-11
      2.77041663738672E-07   2.77041611238672E-07   0.00000000000000E+00  -4.77842124978060E-10   5.24655965449990E-10
     -2.26869665032160E-28   4.68138404719299E-11   2.73079020805488E-30   0.00000000000000E+00   5.24994906009354E-14
      0.00000000000000E+00   4.77614140969362E-10  -5.24427981387609E-10  -1.36793395031105E-24  -4.68138404182486E-11
     -1.29686829769906E-27
      3.55000000000000E-11
      2.82592773754779E-07   2.82592720504778E-07   0.00000000000000E+00  -4.84677332075302E-10   5.32161154023967E-10
      3.13844953754762E-28   4.74838219486648E-11   1.54533089293028E-30   0.00000000000000E+00   5.32495303144573E-14
      0.00000000000000E+00   4.84444450471596E-10  -5.31928272365536E-10  -2.49105673354440E-24  -4.74838218939423E-11
     -6.02213332083296E-28
      3.60000000000000E-11