DF-ISE text

Info {
  version   = 1.0
  type      = xyplot
  datasets  = [
    "time"
    "ntype OuterVoltage" "ntype InnerVoltage" "ntype QuasiFermiPotential" "ntype DisplacementCurrent" "ntype eCurrent"
    "ntype hCurrent" "ntype TotalCurrent" "ntype Charge" "ptype OuterVoltage" "ptype InnerVoltage"
    "ptype QuasiFermiPotential" "ptype DisplacementCurrent" "ptype eCurrent" "ptype hCurrent" "ptype TotalCurrent"
    "ptype Charge" ]
  functions = [
    Time
    OuterVoltage InnerVoltage QuasiFermiPotential DisplacementCurrent eCurrent
    hCurrent TotalCurrent Charge OuterVoltage InnerVoltage
    QuasiFermiPotential DisplacementCurrent eCurrent hCurrent TotalCurrent
    Charge ]
}

Data {
      5.00000000000000E-13
     -2.19535438747812E-09  -2.19535513747811E-09   0.00000000000000E+00  -8.88925022451636E-12   7.31176513100056E-12
      8.31487944787455E-30  -1.57748509351580E-12   7.60417716296123E-30   0.00000000000000E+00   3.05314269254572E-15
      0.00000000000000E+00   4.76583874681007E-12  -3.18835365337612E-12  -2.04810439989511E-26   1.57748509343393E-12
     -2.04736081636192E-27
      1.00000000000000E-12
      2.31380445064870E-09   2.31380295064870E-09   0.00000000000000E+00  -1.29660850391381E-11   1.48822880089842E-11
      6.07310103781730E-29   1.91620296984603E-12   3.63046915256908E-30   0.00000000000000E+00   1.49959023533369E-15
      0.00000000000000E+00   1.32182076468675E-11  -1.51344106170054E-11   6.27518105059959E-26  -1.91620297013790E-12
     -2.59475270338252E-27
      1.50000000000000E-12
      3.74761914951815E-09   3.74761689951815E-09   0.00000000000000E+00  -2.02497958973052E-11   2.23714348789824E-11
     -1.78570674423684E-29   2.12163898167719E-12  -1.83111126354067E-30   0.00000000000000E+00   2.24959047711658E-15
      0.00000000000000E+00   1.96740550425940E-11  -2.17956940247745E-11  -1.12558565522846E-25  -2.12163898218067E-12
     -1.86071145684792E-27
      2.00000000000000E-12
      5.85004113118938E-09   5.85003813118937E-09   0.00000000000000E+00  -2.68498344007672E-11   2.98673202185644E-11
      7.10353191640639E-30   3.01748581779722E-12  -1.54079469657138E-30   0.00000000000000E+00   2.99956815575959E-15
      0.00000000000000E+00   2.64360551884248E-11  -2.94535410060516E-11   9.30162630896270E-27  -3.01748581762682E-12
     -2.19280941641354E-27
      2.50000000000000E-12
      7.95318199038549E-09   7.95317824038545E-09   0.00000000000000E+00  -3.35909030535158E-11   3.73609938108167E-11
      6.84200231364184E-30   3.77009075730096E-12   3.87542375594942E-30   0.00000000000000E+00   3.74952506710174E-15
      0.00000000000000E+00   3.31534042772301E-11  -3.69234950344311E-11  -8.79644787270843E-29  -3.77009075720097E-12
     -1.66912671569543E-27
      3.00000000000000E-12
      1.01835606677969E-08   1.01835561677968E-08   0.00000000000000E+00  -4.03092539477332E-11   4.48617974814315E-11
      5.23698117656994E-29   4.55254353369832E-12  -4.52863603163032E-30   0.00000000000000E+00   4.49956719285882E-15
      0.00000000000000E+00   3.98768654606892E-11  -4.44294089939081E-11  -6.54207791760391E-26  -4.55254353321892E-12
     -2.45007828084282E-27
      3.50000000000000E-12
      1.25119588021619E-08   1.25119535521619E-08   0.00000000000000E+00  -4.70245982029357E-11   5.23531982786345E-11
      8.50798061869607E-29   5.32860007569874E-12   3.60476403986868E-30   0.00000000000000E+00   5.24954267205981E-15
      0.00000000000000E+00   4.65996021964827E-11  -5.19282022713922E-11  -2.03625242762079E-25  -5.32860007490967E-12
     -1.45054253381481E-27
      4.00000000000000E-12
      1.49383610153731E-08   1.49383550153731E-08   0.00000000000000E+00  -5.37430699550189E-11   5.98488108286132E-11
      8.91601481565207E-30   6.10574087359430E-12  -4.99888838750245E-30   0.00000000000000E+00   5.99956392812900E-15
      0.00000000000000E+00   5.33228376428227E-11  -5.94285785152559E-11  -2.70184394152293E-26  -6.10574087243323E-12
     -2.37145087728864E-27
      4.50000000000000E-12
      1.74573208824785E-08   1.74573141324784E-08   0.00000000000000E+00  -6.04650231804862E-11   6.73474752344183E-11
     -3.00507171916005E-29   6.88245205393206E-12  -4.16271619201278E-30   0.00000000000000E+00   6.74957194062323E-15
      0.00000000000000E+00   6.00460353664816E-11  -6.69284874188824E-11  -1.75226015171690E-26  -6.88245205240084E-12
     -2.87471464612990E-27
      5.00000000000000E-12
      2.00647723863685E-08   2.00647648863686E-08   0.00000000000000E+00  -6.71764044390200E-11   7.48354229466772E-11
     -5.80645856628992E-29   7.65901850765723E-12  -5.22721027090017E-30   0.00000000000000E+00   7.49949506379909E-15
      0.00000000000000E+00   6.67691710663345E-11  -7.44281895720429E-11  -1.22155797156714E-25  -7.65901850570847E-12
     -2.71206478948536E-27
      5.50000000000000E-12
      2.27571039575541E-08   2.27570957075543E-08   0.00000000000000E+00  -7.38973802863624E-11   8.23328594283150E-11
      1.24906267941142E-28   8.43547914195260E-12  -4.64204094060270E-30   0.00000000000000E+00   8.24957221165780E-15
      0.00000000000000E+00   7.34931239599800E-11  -8.19286030995409E-11  -2.97107698938698E-25  -8.43547913956115E-12
     -2.67403331921238E-27
      6.00000000000000E-12
      2.55307438417493E-08   2.55307348417493E-08   0.00000000000000E+00  -8.06151624556360E-11   8.98269423858300E-11
      2.19379634501205E-29   9.21177993019405E-12  -5.72467980492568E-30   0.00000000000000E+00   8.99953206174765E-15
      0.00000000000000E+00   8.02164660291186E-11  -8.94282459564422E-11   3.75666454637635E-26  -9.21177992732359E-12
     -2.82059479943738E-27
      6.50000000000000E-12
      2.83827873550831E-08   2.83827776050833E-08   0.00000000000000E+00  -8.73324546461526E-11   9.73204538352261E-11
     -3.10651178984982E-29   9.98799918907360E-12  -4.90060413305972E-30   0.00000000000000E+00   9.74956978390954E-15
      0.00000000000000E+00   8.69406509390535E-11  -9.69286501247492E-11  -4.33671118044460E-26  -9.98799918569572E-12
     -3.59600615676510E-27
      7.00000000000000E-12
      3.13103127890605E-08   3.13103022890606E-08   0.00000000000000E+00  -9.40514255965295E-11   1.04815513219901E-10
      8.50977515232963E-29   1.07640876233716E-11  -1.84320778716439E-30   0.00000000000000E+00   1.04995541302391E-14
      0.00000000000000E+00   9.36643301031762E-11  -1.04428417722631E-10  -2.29890189340161E-25  -1.07640876194555E-11
     -3.10474213935857E-27
      7.50000000000000E-12
      3.43109462836851E-08   3.43109350336852E-08   0.00000000000000E+00  -1.00772324935657E-10   1.12312441740585E-10
      1.49226234117196E-28   1.15401168049278E-11  -2.26356198308868E-30   0.00000000000000E+00   1.12495673771430E-14
      0.00000000000000E+00   1.00388399591462E-10  -1.11928516391908E-10  -3.38574551973918E-25  -1.15401168004460E-11
     -2.81183691633381E-27
      8.00000000000000E-12
      3.73822810100973E-08   3.73822690100971E-08   0.00000000000000E+00  -1.07492236538188E-10   1.19808277888783E-10
     -9.32562114509502E-29   1.23160413505943E-11   1.09760831230733E-29   0.00000000000000E+00   1.19995426231705E-14
      0.00000000000000E+00   1.07112364576090E-10  -1.19428405921610E-10  -5.41823795137330E-25  -1.23160413455208E-11
     -3.36302711177225E-27
      8.50000000000000E-12
      4.05222768248362E-08   4.05222640748364E-08   0.00000000000000E+00  -1.14208225501862E-10   1.27300130798460E-10
     -1.06544326319862E-28   1.30919052965985E-11   2.21215175768787E-30   0.00000000000000E+00   1.27495240262567E-14
      0.00000000000000E+00   1.13836319346764E-10  -1.26928224637674E-10  -6.17561245648142E-26  -1.30919052909094E-11
     -3.26272273788436E-27
      9.00000000000000E-12
      4.37290474694695E-08   4.37290339694698E-08   0.00000000000000E+00  -1.20931449193083E-10   1.34799194945766E-10
      2.18220822364264E-28   1.38677457526822E-11  -2.22878447767048E-30   0.00000000000000E+00   1.34995790585112E-14
      0.00000000000000E+00   1.20560952120590E-10  -1.34428697866945E-10   5.31386181084550E-26  -1.38677457463546E-11
     -3.50922569628853E-27
      9.50000000000000E-12
      4.70006184176114E-08   4.70006041676114E-08   0.00000000000000E+00  -1.27648134436291E-10   1.42291593732008E-10
     -5.61701994155958E-29   1.46434592957166E-11  -3.27664583657526E-30   0.00000000000000E+00   1.42495046609231E-14
      0.00000000000000E+00   1.27284682798350E-10  -1.41928142087078E-10  -6.98795264016723E-25  -1.46434592887289E-11
     -3.17698257843943E-27
      1.00000000000000E-11
      5.03355647582870E-08   5.03355497582870E-08   0.00000000000000E+00  -1.34366707626971E-10   1.49785902327924E-10
      7.97970913187748E-29   1.54191947009525E-11   4.24890392283179E-31   0.00000000000000E+00   1.49995309514810E-14
      0.00000000000000E+00   1.34009218557175E-10  -1.49428413250459E-10   1.90040426452816E-25  -1.54191946932844E-11
     -3.38639759541328E-27
      1.05000000000000E-11
      5.37321935858838E-08   5.37321778358842E-08   0.00000000000000E+00  -1.41083435822357E-10   1.57278279762947E-10
     -2.36341344790349E-28   1.61948439405899E-11   7.73723892282216E-30   0.00000000000000E+00   1.57495249067207E-14
      0.00000000000000E+00   1.40733427559650E-10  -1.56928271491873E-10   6.92466347152369E-25  -1.61948439322222E-11
     -2.90285116007868E-27
      1.10000000000000E-11
      5.71891581567908E-08   5.71891416567906E-08   0.00000000000000E+00  -1.47801517314148E-10   1.64772004368191E-10
     -1.91976544019836E-28   1.69704870540431E-11   3.09217385131353E-30   0.00000000000000E+00   1.64995509288262E-14
      0.00000000000000E+00   1.47457970639849E-10  -1.64428457684806E-10  -8.59087695345231E-25  -1.69704870449573E-11
     -2.59201888904356E-27
      1.15000000000000E-11
      6.07050479124984E-08   6.07050306624987E-08   0.00000000000000E+00  -1.54520742368786E-10   1.72266812423015E-10
     -2.11660255734814E-28   1.77460700542292E-11   3.08461352404870E-31   0.00000000000000E+00   1.72495564626382E-14
      0.00000000000000E+00   1.54182407750191E-10  -1.71928477794599E-10  -2.55308459955533E-25  -1.77460700444084E-11
     -3.28454486650155E-27
      1.20000000000000E-11
      6.42786601418223E-08   6.42786421418227E-08   0.00000000000000E+00  -1.61243221674611E-10   1.79764865708945E-10
      2.55421508517337E-29   1.85216440343342E-11   8.27099802771882E-31   0.00000000000000E+00   1.79995640735762E-14
      0.00000000000000E+00   1.60906827470138E-10  -1.79428471493899E-10  -9.54819998629789E-25  -1.85216440237614E-11
     -3.32964070657078E-27
      1.25000000000000E-11
      6.79087472883453E-08   6.79087285383457E-08   0.00000000000000E+00  -1.67957479197834E-10   1.87254634137705E-10
     -7.53469308206624E-29   1.92971549398705E-11  -1.19755583874832E-30   0.00000000000000E+00   1.87495088111994E-14
      0.00000000000000E+00   1.67631012463205E-10  -1.86928167391735E-10  -3.08963264492543E-25  -1.92971549285303E-11
     -3.06334783551820E-27
      1.30000000000000E-11
      7.15943213848534E-08   7.15943018848536E-08   0.00000000000000E+00  -1.74679925562432E-10   1.94752615761931E-10
     -9.26244978901874E-30   2.00726901994988E-11   1.82657506718178E-30   0.00000000000000E+00   1.94995662799962E-14
      0.00000000000000E+00   1.74355960330737E-10  -1.94428650518113E-10  -2.91492240174601E-25  -2.00726901873764E-11
     -2.61059914932959E-27
      1.35000000000000E-11
      7.53341929665160E-08   7.53341727165156E-08   0.00000000000000E+00  -1.81396789857289E-10   2.02244957283515E-10
     -2.15788523972665E-28   2.08481674262262E-11   2.01407118334945E-30   0.00000000000000E+00   2.02495349669132E-14
      0.00000000000000E+00   1.81080157717378E-10  -2.01928325130685E-10  -8.82834073655419E-25  -2.08481674133075E-11
     -2.76045088398024E-27
      1.40000000000000E-11
      7.91274349186707E-08   7.91274139186709E-08   0.00000000000000E+00  -1.88117788157974E-10   2.09741415399596E-10
      3.64768309328098E-28   2.16236272416218E-11   5.65663685954225E-30   0.00000000000000E+00   2.09995220921911E-14
      0.00000000000000E+00   1.87804623608316E-10  -2.09428250836208E-10  -8.49589556043249E-25  -2.16236272278931E-11
     -2.38023295343946E-27
      1.45000000000000E-11
      8.29731749904442E-08   8.29731532404449E-08   0.00000000000000E+00  -1.94834666484873E-10   2.17233773300678E-10
      1.67609299918056E-28   2.23991068158050E-11  -1.33364172951517E-30   0.00000000000000E+00   2.17495445204759E-14
      0.00000000000000E+00   1.94529451481721E-10  -2.16928558282975E-10  -3.75384058557708E-25  -2.23991068012537E-11
     -2.85190060257557E-27
      1.50000000000000E-11
      8.68703642940354E-08   8.68703417940357E-08   0.00000000000000E+00  -2.01554776437651E-10   2.24729287458855E-10
      9.34775123798798E-29   2.31745110212031E-11  -2.86838816427470E-30   0.00000000000000E+00   2.24995274573865E-14
      0.00000000000000E+00   2.01253711968404E-10  -2.24428222974220E-10  -5.44576810882441E-25  -2.31745110058169E-11
     -2.48576302553280E-27
      1.55000000000000E-11
      9.08183422075899E-08   9.08183189575896E-08   0.00000000000000E+00  -2.08271299680732E-10   2.32221257645366E-10
     -1.85088049650244E-28   2.39499579646347E-11  -4.15817999565388E-30   0.00000000000000E+00   2.32495529442727E-14
      0.00000000000000E+00   2.07978660915782E-10  -2.31928618864184E-10   9.54153552894144E-25  -2.39499579484018E-11
     -3.06034789765952E-27
      1.60000000000000E-11
      9.48161350506922E-08   9.48161110506917E-08   0.00000000000000E+00  -2.14988656819981E-10   2.39713997107348E-10
     -1.61268022390908E-28   2.47253402873665E-11  -1.17487485695384E-30   0.00000000000000E+00   2.39995494016667E-14
      0.00000000000000E+00   2.14703088912937E-10  -2.39428429183213E-10   2.98499705923585E-25  -2.47253402702759E-11
     -2.82231250579195E-27
      1.65000000000000E-11
      9.88631174303900E-08   9.88630926803903E-08   0.00000000000000E+00  -2.21709554110243E-10   2.47210305314116E-10
      1.10827505207964E-28   2.55007512038732E-11   3.02413090593010E-33   0.00000000000000E+00   2.47495820379791E-14
      0.00000000000000E+00   2.21427894740605E-10  -2.46928645926518E-10  -4.35800918184479E-25  -2.55007511859144E-11
     -1.82507509825244E-27
      1.70000000000000E-11
      1.02958438890603E-07   1.02958413390603E-07   0.00000000000000E+00  -2.28430019519139E-10   2.54706137224998E-10
      3.15486604282094E-28   2.62761177058587E-11   7.56183933027821E-30   0.00000000000000E+00   2.54995518065080E-14
      0.00000000000000E+00   2.28152343742874E-10  -2.54428461429894E-10  -7.78346815919370E-25  -2.62761176870214E-11
     -2.36085432259426E-27
      1.75000000000000E-11
      1.07101477360987E-07   1.07101451110988E-07   0.00000000000000E+00  -2.35144153845716E-10   2.62195633403215E-10
     -3.24048938405045E-28   2.70514795574983E-11  -1.52869817294766E-30   0.00000000000000E+00   2.62495280157763E-14
      0.00000000000000E+00   2.34876803015594E-10  -2.61928282553367E-10   2.23721816240613E-25  -2.70514795377729E-11
     -2.26323537695084E-27
      1.80000000000000E-11
      1.11291636291714E-07   1.11291609291714E-07   0.00000000000000E+00  -2.41863270138707E-10   2.69690144664630E-10
     -3.76839269087897E-28   2.78268745259233E-11  -3.97824420675104E-30   0.00000000000000E+00   2.69996075054382E-14
      0.00000000000000E+00   2.41601963460154E-10  -2.69428837965454E-10  -3.69987599192879E-25  -2.78268745053005E-11
     -2.57907560876618E-27
      1.85000000000000E-11
      1.15528086902903E-07   1.15528059152903E-07   0.00000000000000E+00  -2.48585109487760E-10   2.77187307199747E-10
      4.00401782539024E-28   2.86021977119872E-11  -4.11130596661197E-30   0.00000000000000E+00   2.77495780257362E-14
      0.00000000000000E+00   2.48326320972939E-10  -2.76928518663396E-10  -1.10612893200202E-24  -2.86021976904585E-11
     -2.72916927388930E-27
      1.90000000000000E-11
      1.19810409396361E-07   1.19810380896362E-07   0.00000000000000E+00  -2.55306154385777E-10   2.84683712300894E-10
     -7.30373538532876E-29   2.93775579151168E-11   8.90606551796414E-31   0.00000000000000E+00   2.84995834499388E-14
      0.00000000000000E+00   2.55051160743486E-10  -2.84428718636159E-10  -9.29389995041531E-25  -2.93775578926737E-11
     -2.94724540177773E-27
      1.95000000000000E-11
      1.24137853750678E-07   1.24137824500678E-07   0.00000000000000E+00  -2.62025277212909E-10   2.92178132481481E-10
      2.16343788121616E-28   3.01528552685713E-11  -4.80534400952293E-30   0.00000000000000E+00   2.92495072827033E-14
      0.00000000000000E+00   2.61775171068326E-10  -2.91928026313532E-10  -1.13621272513223E-25  -3.01528552452055E-11
     -2.45317499089050E-27
      2.00000000000000E-11
      1.28510069922195E-07   1.28510039922195E-07   0.00000000000000E+00  -2.68742371382287E-10   2.99670581287987E-10
     -5.60092532854652E-28   3.09282099056996E-11   1.79935788902841E-31   0.00000000000000E+00   2.99995342484792E-14
      0.00000000000000E+00   2.68500267496616E-10  -2.99428477378020E-10  -2.79350979145161E-26  -3.09282098814038E-11
     -2.58209973967211E-27
      2.05000000000000E-11
      1.32926381958350E-07   1.32926351208350E-07   0.00000000000000E+00  -2.75460773497685E-10   3.07164303634788E-10
     -8.37563661199887E-29   3.17035301371030E-11   6.19946835715670E-31   0.00000000000000E+00   3.07495536272789E-14
      0.00000000000000E+00   2.75225037497032E-10  -3.06928567608902E-10  -9.76698371775229E-26  -3.17035301118695E-11
     -2.72730640925125E-27
      2.10000000000000E-11
      1.37386281760663E-07   1.37386250260663E-07   0.00000000000000E+00  -2.82178822182642E-10   3.14657651622258E-10
     -6.42818843741804E-29   3.24788294396156E-11   2.47222701559786E-30   0.00000000000000E+00   3.14995509943413E-14
      0.00000000000000E+00   2.81949565167881E-10  -3.14428394581318E-10  -1.85477925555873E-25  -3.24788294134377E-11
     -3.25994053745090E-27
      2.15000000000000E-11
      1.41889352727565E-07   1.41889320477565E-07   0.00000000000000E+00  -2.88896298472457E-10   3.22150443874188E-10
      2.60539595455491E-28   3.32541454017306E-11   4.40615872994015E-30   0.00000000000000E+00   3.22495690071295E-14
      0.00000000000000E+00   2.88674518560108E-10  -3.21928663934711E-10   1.06770993192770E-24  -3.32541453746014E-11
     -2.47538420826365E-27
      2.20000000000000E-11
      1.46435076843777E-07   1.46435043843777E-07   0.00000000000000E+00  -2.95618190279499E-10   3.29647649658456E-10
      1.62555591431954E-28   3.40294593789568E-11  -1.34573825313889E-31   0.00000000000000E+00   3.29996008689476E-14
      0.00000000000000E+00   2.95399281735236E-10  -3.29428741086106E-10  -9.52512674908236E-26  -3.40294593508698E-11
     -3.42948541256097E-27
      2.25000000000000E-11
      1.51022920557644E-07   1.51022886807643E-07   0.00000000000000E+00  -3.02335059341080E-10   3.37139777559737E-10
      1.62877483692215E-29   3.48047182186571E-11  -5.05332274380919E-30   0.00000000000000E+00   3.37495271946119E-14
      0.00000000000000E+00   3.02123438118971E-10  -3.36928156308579E-10   1.44887981072825E-24  -3.48047181896064E-11
     -3.45278331706025E-27
      2.30000000000000E-11
      1.55652636875358E-07   1.55652602375359E-07   0.00000000000000E+00  -3.09051927748965E-10   3.44631956493450E-10
      4.61464744310591E-28   3.55800287444853E-11  -6.15410639356775E-31   0.00000000000000E+00   3.44995548236745E-14
      0.00000000000000E+00   3.08848479642111E-10  -3.44428508356577E-10   1.13675041396377E-24  -3.55800287144651E-11
     -2.66203356777765E-27
      2.35000000000000E-11
      1.60323683024290E-07   1.60323647774290E-07   0.00000000000000E+00  -3.15771807178466E-10   3.52127119055564E-10
     -2.55518076195415E-28   3.63553118770980E-11   3.81342907237785E-30   0.00000000000000E+00   3.52495742070479E-14
      0.00000000000000E+00   3.15573198364436E-10  -3.51928510210536E-10  -2.27991189169672E-24  -3.63553118461024E-11
     -2.85185221648107E-27
      2.40000000000000E-11
      1.65035685322192E-07   1.65035649322191E-07   0.00000000000000E+00  -3.22493688276351E-10   3.59624282930410E-10
     -1.01396061982308E-28   3.71305946540597E-11  -4.20202989378987E-30   0.00000000000000E+00   3.59995670627005E-14
      0.00000000000000E+00   3.22297958143603E-10  -3.59428552765686E-10  -1.12718944129259E-25  -3.71305946220835E-11
     -1.88504966237884E-27
      2.45000000000000E-11
      1.69788236899781E-07   1.69788200149781E-07   0.00000000000000E+00  -3.29211275095027E-10   3.67117134951137E-10
      1.63778782020946E-28   3.79058598561095E-11  -2.25902578672978E-30   0.00000000000000E+00   3.67495389995858E-14
      0.00000000000000E+00   3.29022353284482E-10  -3.66928213107629E-10  -1.73312973256078E-25  -3.79058598231474E-11
     -2.04128836150282E-27
      2.50000000000000E-11
      1.74581047536544E-07   1.74581010036543E-07   0.00000000000000E+00  -3.35933972334322E-10   3.74615120655282E-10
     -2.41741087456232E-28   3.86811483209603E-11   2.43593744472669E-30   0.00000000000000E+00   3.74995502824114E-14
      0.00000000000000E+00   3.35747325708737E-10  -3.74428473995744E-10  -8.10470118410598E-25  -3.86811482870075E-11
     -3.10147607798017E-27
      2.55000000000000E-11
      1.79413663138303E-07   1.79413624888303E-07   0.00000000000000E+00  -3.42647752457524E-10   3.82104160115909E-10
      6.82411591753944E-30   3.94564076583850E-11   2.48129940831565E-30   0.00000000000000E+00   3.82495220314827E-14
      0.00000000000000E+00   3.42471876626232E-10  -3.81928284249668E-10  -8.48687227659285E-25  -3.94564076234367E-11
     -2.58226909100284E-27
      2.60000000000000E-11
      1.84285813564133E-07   1.84285774564133E-07   0.00000000000000E+00  -3.49371328097428E-10   3.89603005652942E-10
      2.51719747524332E-28   4.02316775555147E-11   9.70746020803561E-31   0.00000000000000E+00   3.89995533088174E-14
      0.00000000000000E+00   3.49196869812357E-10  -3.89428547331922E-10  -4.65222385799978E-25  -4.02316775195665E-11
     -3.34403556968301E-27
      2.65000000000000E-11
      1.89197157739269E-07   1.89197117989269E-07   0.00000000000000E+00  -3.56089566097865E-10   3.97096517018503E-10
     -1.24250412460860E-28   4.10069509206373E-11  -1.04332516254588E-30   0.00000000000000E+00   3.97495410125158E-14
      0.00000000000000E+00   3.55921432631787E-10  -3.96928383515473E-10   2.03034186944332E-24  -4.10069508836847E-11
     -2.64967092063421E-27
      2.70000000000000E-11
      1.94147330409276E-07   1.94147289909277E-07   0.00000000000000E+00  -3.62807971475435E-10   4.04590166765960E-10
     -1.46074707706575E-28   4.17821952905255E-11   1.01595677784722E-29   0.00000000000000E+00   4.04995297267372E-14
      0.00000000000000E+00   3.62646115553521E-10  -4.04428310806084E-10  -2.05034142184406E-24  -4.17821952525646E-11
     -2.36235429152360E-27
      2.75000000000000E-11
      1.99136082256671E-07   1.99136041006670E-07   0.00000000000000E+00  -3.69523745403047E-10   4.12081194925896E-10
      4.40670504297712E-28   4.25574495228495E-11   8.29216694406033E-30   0.00000000000000E+00   4.12495286048872E-14
      0.00000000000000E+00   3.69370785155855E-10  -4.11928234639732E-10   6.68209190203599E-25  -4.25574494838763E-11
     -2.33835478865414E-27
      2.80000000000000E-11
      2.04163139375727E-07   2.04163097375726E-07   0.00000000000000E+00  -3.76246621497619E-10   4.19579339405904E-10
     -6.60007890439757E-28   4.33327179082848E-11  -4.97469534025501E-30   0.00000000000000E+00   4.19995627406994E-14
      0.00000000000000E+00   3.76095846526951E-10  -4.19428564395246E-10  -1.36144460234418E-25  -4.33327178682950E-11
     -2.14435074277691E-27
      2.85000000000000E-11
      2.09228118808582E-07   2.09228076058581E-07   0.00000000000000E+00  -3.82961616847828E-10   4.27069569146539E-10
     -3.26913779521370E-28   4.41079522987113E-11  -4.67681844602090E-30   0.00000000000000E+00   4.27495170806406E-14
      0.00000000000000E+00   3.82820246630587E-10  -4.26928198888290E-10   1.30355549825879E-25  -4.41079522577020E-11
     -2.80416772035637E-27
      2.90000000000000E-11
      2.14330917329697E-07   2.14330873829697E-07   0.00000000000000E+00  -3.89684478968642E-10   4.34567708324617E-10
      8.92735994608673E-28   4.48832293559749E-11   6.04826181186020E-32   0.00000000000000E+00   4.34995855000144E-14
      0.00000000000000E+00   3.89545526805359E-10  -4.34428756119301E-10  -1.17047236217636E-25  -4.48832293139418E-11
     -2.51288343149718E-27
      2.95000000000000E-11
      2.19471047445968E-07   2.19471003195967E-07   0.00000000000000E+00  -3.96401869492806E-10   4.42060312181491E-10
      1.00765153152196E-27   4.56584426886847E-11  -1.54533089293028E-30   0.00000000000000E+00   4.42495241870378E-14
      0.00000000000000E+00   3.96269733132351E-10  -4.41928175777978E-10   1.31744888323929E-24  -4.56584426456252E-11
     -1.82485736082721E-27
      3.00000000000000E-11
      2.24648476794864E-07   2.24648431794864E-07   0.00000000000000E+00  -4.03122554577730E-10   4.49556257173273E-10
      4.18524316791735E-28   4.64337025955422E-11   4.36684502816306E-30   0.00000000000000E+00   4.49995415412159E-14
      0.00000000000000E+00   4.02994814073026E-10  -4.49428516624477E-10  -1.13063806621212E-24  -4.64337025514526E-11
     -1.81658333866859E-27
      3.05000000000000E-11
      2.29862858775720E-07   2.29862813025720E-07   0.00000000000000E+00  -4.09842158325940E-10   4.57051104891697E-10
      5.01379384582992E-28   4.72089465657574E-11   3.74236199608850E-30   0.00000000000000E+00   4.57495426321953E-14
      0.00000000000000E+00   4.09719550511328E-10  -4.56928497031960E-10  -2.39161520136640E-24  -4.72089465206350E-11
     -2.12044801209644E-27
      3.10000000000000E-11
      2.35113977609781E-07   2.35113931109780E-07   0.00000000000000E+00  -4.16556595298525E-10   4.64540788458241E-10
      1.38799942624670E-28   4.79841931597151E-11  -1.42890185305197E-30   0.00000000000000E+00   4.64995544387427E-14
      0.00000000000000E+00   4.16444267464896E-10  -4.64428460578454E-10   1.87643513677387E-24  -4.79841931135564E-11
     -1.68618281400488E-27
      3.15000000000000E-11
      2.40401567496043E-07   2.40401520246043E-07   0.00000000000000E+00  -4.23278008592094E-10   4.72037416844677E-10
      2.33049996429177E-28   4.87594082525829E-11   4.00092518854552E-30   0.00000000000000E+00   4.72495444893772E-14
      0.00000000000000E+00   4.23168914050266E-10  -4.71928322255651E-10  -3.95285755711335E-25  -4.87594082053852E-11
     -2.13140746249953E-27
      3.20000000000000E-11
      2.45725491654643E-07   2.45725443654644E-07   0.00000000000000E+00  -4.29994375213012E-10   4.79529029621558E-10
     -6.96059823589022E-28   4.95346544085459E-11  -6.57143645858610E-30   0.00000000000000E+00   4.79995394215203E-14
      0.00000000000000E+00   4.29893633322978E-10  -4.79428287683285E-10  -6.49429223198530E-26  -4.95346543603066E-11
     -2.21281706648717E-27
      3.25000000000000E-11
      2.51085547620107E-07   2.51085498870108E-07   0.00000000000000E+00  -4.36718542987149E-10   4.87028453960016E-10
     -2.72835879797473E-28   5.03099109728668E-11   3.35678530558241E-31   0.00000000000000E+00   4.87495962872326E-14
      0.00000000000000E+00   4.36618803276169E-10  -4.86928714199752E-10   1.08197001657108E-25  -5.03099109235831E-11
     -1.32979503500283E-27
      3.30000000000000E-11
      2.56481416866813E-07   2.56481367366815E-07   0.00000000000000E+00  -4.43437067269846E-10   4.94522193570962E-10
     -1.22061545091083E-28   5.10851263011158E-11   3.27059757476340E-30   0.00000000000000E+00   4.94995477394293E-14
      0.00000000000000E+00   4.43343321480630E-10  -4.94428447731415E-10  -6.81785318172379E-25  -5.10851262507855E-11
     -2.35270126567187E-27
      3.35000000000000E-11
      2.61913003207876E-07   2.61912952957876E-07   0.00000000000000E+00  -4.50157053693942E-10   5.02017404025483E-10
      2.61891542948589E-28   5.18603503315413E-11  -2.12596402686886E-30   0.00000000000000E+00   5.02495333875513E-14
      0.00000000000000E+00   4.50067943565642E-10  -5.01928293845804E-10   3.30441718693834E-25  -5.18603502801616E-11
     -2.08645678071379E-27
      3.40000000000000E-11
      2.67380120284181E-07   2.67380069284180E-07   0.00000000000000E+00  -4.56875402219074E-10   5.09510988097887E-10
      1.59272290377288E-28   5.26355858788135E-11   3.49287119634926E-30   0.00000000000000E+00   5.09995316344439E-14
      0.00000000000000E+00   4.56792838111311E-10  -5.09428423937693E-10  -8.09911828474401E-25  -5.26355858263825E-11
     -1.59872494820538E-27
      3.45000000000000E-11
      2.72882567113430E-07   2.72882515363430E-07   0.00000000000000E+00  -4.63593746235840E-10   5.17004551518204E-10
     -5.37302560828152E-28   5.34108052823637E-11   2.87594849153952E-30   0.00000000000000E+00   5.17495361580708E-14
      0.00000000000000E+00   4.63517576299026E-10  -5.16928381527902E-10  -2.81819403505130E-24  -5.34108052288788E-11
     -2.26548533034485E-27
      3.50000000000000E-11
      2.78420194115902E-07   2.78420141615901E-07   0.00000000000000E+00  -4.70307745650188E-10   5.24493791132039E-10
      2.60861487715753E-28   5.41860454818512E-11  -4.70101149326834E-30   0.00000000000000E+00   5.24995444880534E-14
      0.00000000000000E+00   4.70242389023406E-10  -5.24428434450719E-10   2.27859342099869E-24  -5.41860454273102E-11
     -2.41204681056985E-27
      3.55000000000000E-11
      2.83992794715963E-07   2.83992741465964E-07   0.00000000000000E+00  -4.77031349712778E-10   5.31992606205637E-10
      4.33266982311702E-28   5.49612564928590E-11  -3.34922497831758E-30   0.00000000000000E+00   5.32495650998685E-14
      0.00000000000000E+00   4.76967219265284E-10  -5.31928475702543E-10  -4.93338773435473E-25  -5.49612564372597E-11
     -1.73064963484568E-27
      3.60000000000000E-11