DF-ISE text

Info {
  version   = 1.0
  type      = xyplot
  datasets  = [
    "time"
    "ntype OuterVoltage" "ntype InnerVoltage" "ntype QuasiFermiPotential" "ntype DisplacementCurrent" "ntype eCurrent"
    "ntype hCurrent" "ntype TotalCurrent" "ntype Charge" "ptype OuterVoltage" "ptype InnerVoltage"
    "ptype QuasiFermiPotential" "ptype DisplacementCurrent" "ptype eCurrent" "ptype hCurrent" "ptype TotalCurrent"
    "ptype Charge" ]
  functions = [
    Time
    OuterVoltage InnerVoltage QuasiFermiPotential DisplacementCurrent eCurrent
    hCurrent TotalCurrent Charge OuterVoltage InnerVoltage
    QuasiFermiPotential DisplacementCurrent eCurrent hCurrent TotalCurrent
    Charge ]
}

Data {
      5.00000000000000E-13
      1.18553428484503E-09   1.18553353484502E-09   0.00000000000000E+00   1.41632847201925E-13   7.35873280174254E-12
      6.97803244252351E-33   7.50036564894446E-12   9.63415716007424E-14   0.00000000000000E+00   7.42875045981023E-16
      0.00000000000000E+00  -1.11849603016945E-12  -6.34797162849971E-12   1.05528741248051E-26  -7.46646765866915E-12
     -9.79512195257149E-14
      1.00000000000000E-12
      2.89100479007630E-09   2.89100329007630E-09   0.00000000000000E+00   1.28016863514173E-13   1.48722408664686E-11
     -8.94033085444392E-32   1.50002577299828E-11   9.63415716063663E-14   0.00000000000000E+00   1.49958147199056E-15
      0.00000000000000E+00  -9.50079567779077E-13  -1.40501670390742E-11   1.22278294218247E-26  -1.50002466068533E-11
     -9.79512195313400E-14
      1.50000000000000E-12
      4.75558459137318E-09   4.75558234137320E-09   0.00000000000000E+00   1.29106468351966E-13   2.23709716375411E-11
      1.22352863578876E-32   2.25000781058931E-11   9.63415716157403E-14   0.00000000000000E+00   2.24956511245923E-15
      0.00000000000000E+00  -9.92102341495499E-13  -2.15080002308699E-11  -5.57736063524161E-26  -2.25001025723655E-11
     -9.79512195407117E-14
      2.00000000000000E-12
      6.79514808716093E-09   6.79514508716090E-09   0.00000000000000E+00   1.28883993865087E-13   2.98713193173251E-11
      1.59262035759048E-32   3.00002033111902E-11   9.63415716288632E-14   0.00000000000000E+00   2.99958491143046E-15
      0.00000000000000E+00  -9.83245153985309E-13  -2.90169799724635E-11   1.01142374704784E-25  -3.00002251264487E-11
     -9.79512195538332E-14
      2.50000000000000E-12
      8.97908134577015E-09   8.97907759577017E-09   0.00000000000000E+00   1.26527654975011E-13   3.73734418225460E-11
     -2.21792097539658E-32   3.74999694775210E-11   9.63415716457353E-14   0.00000000000000E+00   3.74955444043512E-15
      0.00000000000000E+00  -9.85089967643268E-13  -3.65148800977810E-11   1.04141875454358E-25  -3.74999700654242E-11
     -9.79512195707060E-14
      3.00000000000000E-12
      1.12946130920907E-08   1.12946085920906E-08   0.00000000000000E+00   1.30494350659500E-13   4.48694162467086E-11
      8.65335945443337E-32   4.49999105973681E-11   9.63415716663558E-14   0.00000000000000E+00   4.49956563199594E-15
      0.00000000000000E+00  -9.84406409600158E-13  -4.40154788738050E-11   6.95283015390795E-26  -4.49998852834050E-11
     -9.79512195913278E-14
      3.50000000000000E-12
      1.37302354593160E-08   1.37302302093161E-08   0.00000000000000E+00   1.32082108589853E-13   5.23683210619188E-11
     -5.42250145459700E-33   5.25004031705086E-11   9.63415716907259E-14   0.00000000000000E+00   5.24961360026266E-15
      0.00000000000000E+00  -9.84881852034474E-13  -5.15155128445788E-11   2.20928820882962E-26  -5.25003946966133E-11
     -9.79512196156967E-14
      4.00000000000000E-12
      1.62772944745033E-08   1.62772884745033E-08   0.00000000000000E+00   1.26385434116912E-13   5.98741530033001E-11
     -1.09919605573113E-31   6.00005384374170E-11   9.63415717188452E-14   0.00000000000000E+00   5.99962704607347E-15
      0.00000000000000E+00  -9.84986550873540E-13  -5.90155879867362E-11  -1.99280215144128E-25  -6.00005745376099E-11
     -9.79512196438132E-14
      4.50000000000000E-12
      1.89286981553365E-08   1.89286914053364E-08   0.00000000000000E+00   1.29845076215277E-13   6.73700638524643E-11
     -1.30422948029698E-31   6.74999089286795E-11   9.63415717507132E-14   0.00000000000000E+00   6.74956847036956E-15
      0.00000000000000E+00  -9.84569968020729E-13  -6.65153472591256E-11  -1.23474008507619E-25  -6.74999172271464E-11
     -9.79512196756822E-14
      5.00000000000000E-12
      2.16786781688672E-08   2.16786706688673E-08   0.00000000000000E+00   1.28347573862320E-13   7.48721365213838E-11
     -2.85502560282292E-31   7.50004840952461E-11   9.63415717863303E-14   0.00000000000000E+00   7.49962764567238E-15
      0.00000000000000E+00  -9.84796955839611E-13  -7.40156937216111E-11   1.04439038289240E-25  -7.50004906774506E-11
     -9.79512197112990E-14
      5.50000000000000E-12
      2.45220245369154E-08   2.45220162869155E-08   0.00000000000000E+00   1.31244983115867E-13   8.23686593755226E-11
      2.25721446419800E-31   8.24999043586385E-11   9.63415718256975E-14   0.00000000000000E+00   8.24955361034960E-15
      0.00000000000000E+00  -9.84692994204640E-13  -8.15151732067378E-11   6.52856732948272E-26  -8.24998662009423E-11
     -9.79512197506630E-14
      6.00000000000000E-12
      2.74546756455354E-08   2.74546666455356E-08   0.00000000000000E+00   1.26732624501363E-13   8.98737312028796E-11
      1.45071560654870E-32   9.00004638273810E-11   9.63415718688134E-14   0.00000000000000E+00   8.99960958998780E-15
      0.00000000000000E+00  -9.84926346746062E-13  -8.90155502307205E-11  -4.26187155063748E-25  -9.00004765774670E-11
     -9.79512197937798E-14
      6.50000000000000E-12
      3.04726944644207E-08   3.04726847144209E-08   0.00000000000000E+00   1.30866415837199E-13   9.73693217429616E-11
     -1.46281800109954E-31   9.75001881587988E-11   9.63415719156787E-14   0.00000000000000E+00   9.74959247541915E-15
      0.00000000000000E+00  -9.84667213467164E-13  -9.65155223790184E-11  -3.88235540058706E-26  -9.75001895924856E-11
     -9.79512198406436E-14
      7.00000000000000E-12
      3.35727774254041E-08   3.35727669254043E-08   0.00000000000000E+00   1.32214788770001E-13   1.04868145154921E-10
     -2.40649042815463E-31   1.05000359943691E-10   9.63415719662930E-14   0.00000000000000E+00   1.04996075459806E-14
      0.00000000000000E+00  -9.84857662932075E-13  -1.04015490997289E-10   1.95373150767861E-25  -1.05000348660221E-10
     -9.79512198912588E-14
      7.50000000000000E-12
      3.67520114953472E-08   3.67520002453473E-08   0.00000000000000E+00   1.29114523639140E-13   1.12371484991321E-10
      2.64680940566416E-31   1.12500599514961E-10   9.63415720206565E-14   0.00000000000000E+00   1.12496449172960E-14
      0.00000000000000E+00  -9.84863110931880E-13  -1.11515686282217E-10  -6.16490632435941E-25  -1.12500549393150E-10
     -9.79512199456226E-14
      8.00000000000000E-12
      4.00076460530555E-08   4.00076340530558E-08   0.00000000000000E+00   1.32249505717676E-13   1.19868146583340E-10
      5.84592808992118E-31   1.20000396089058E-10   9.63415720787698E-14   0.00000000000000E+00   1.19996206403447E-14
      0.00000000000000E+00  -9.84780346871372E-13  -1.19015606308552E-10  -1.54229140301509E-25  -1.20000386655424E-10
     -9.79512200037352E-14
      8.50000000000000E-12
      4.33372915278392E-08   4.33372787778391E-08   0.00000000000000E+00   1.27574161829755E-13   1.27372873319485E-10
     -4.12424458459783E-32   1.27500447481315E-10   9.63415721406314E-14   0.00000000000000E+00   1.27496215603282E-14
      0.00000000000000E+00  -9.84934955610492E-13  -1.26515512447313E-10  -2.35656032037524E-26  -1.27500447402924E-10
     -9.79512200655959E-14
      9.00000000000000E-12
      4.67387477396996E-08   4.67387342396995E-08   0.00000000000000E+00   1.32520256296561E-13   1.34867369979181E-10
      2.18157449825526E-31   1.34999890235478E-10   9.63415722062428E-14   0.00000000000000E+00   1.34995657956697E-14
      0.00000000000000E+00  -9.84559994102483E-13  -1.34015335543405E-10   1.24208179736579E-25  -1.34999895537507E-10
     -9.79512201312079E-14
      9.50000000000000E-12
      5.02100808502411E-08   5.02100666002412E-08   0.00000000000000E+00   1.28658539797199E-13   1.42371889475861E-10
      4.30090811024905E-31   1.42500548015658E-10   9.63415722756031E-14   0.00000000000000E+00   1.42496269276417E-14
      0.00000000000000E+00  -9.84894558301710E-13  -1.41515621460504E-10  -5.29272249934147E-25  -1.42500516018806E-10
     -9.79512202005638E-14
      1.00000000000000E-11
      5.37492974868696E-08   5.37492824868695E-08   0.00000000000000E+00   1.29821903728068E-13   1.49870457966152E-10
     -2.13127883258943E-32   1.50000279869880E-10   9.63415723487125E-14   0.00000000000000E+00   1.49996102844631E-14
      0.00000000000000E+00  -9.84719388169394E-13  -1.49015541396113E-10   3.91965887494709E-25  -1.50000260784282E-10
     -9.79512202736760E-14
      1.05000000000000E-11
      5.73547614842419E-08   5.73547457342421E-08   0.00000000000000E+00   1.27203718700931E-13   1.57373176501539E-10
     -1.18131944732612E-31   1.57500380220240E-10   9.63415724255717E-14   0.00000000000000E+00   1.57496098806750E-14
      0.00000000000000E+00  -9.84861311239882E-13  -1.56515553661843E-10  -5.68769717866473E-25  -1.57500414973083E-10
     -9.79512203505330E-14
      1.10000000000000E-11
      6.10248638157786E-08   6.10248473157785E-08   0.00000000000000E+00   1.29261965679120E-13   1.64870960433750E-10
      2.82535901877784E-31   1.65000222399429E-10   9.63415725061793E-14   0.00000000000000E+00   1.64996022973339E-14
      0.00000000000000E+00  -9.84638637381054E-13  -1.64015561071002E-10  -9.97105826031295E-25  -1.65000199708384E-10
     -9.79512204311389E-14
      1.15000000000000E-11
      6.47580913602770E-08   6.47580741102773E-08   0.00000000000000E+00   1.29158738418396E-13   1.72370862463191E-10
      3.43267918169271E-32   1.72500021201610E-10   9.63415725905361E-14   0.00000000000000E+00   1.72495746452765E-14
      0.00000000000000E+00  -9.84664881273634E-13  -1.71515336852832E-10   2.24267744886487E-25  -1.72500001734105E-10
     -9.79512205154970E-14
      1.20000000000000E-11
      6.85531758985753E-08   6.85531578985750E-08   0.00000000000000E+00   1.30011702079106E-13   1.79870354626114E-10
     -6.31210604106131E-32   1.80000366328193E-10   9.63415726786427E-14   0.00000000000000E+00   1.79996098139118E-14
      0.00000000000000E+00  -9.84777046349589E-13  -1.79015611920096E-10  -1.94466187193982E-25  -1.80000388966446E-10
     -9.79512206036035E-14
      1.25000000000000E-11
      7.24086957530957E-08   7.24086770030956E-08   0.00000000000000E+00   1.31602427966936E-13   1.87368825132619E-10
     -3.36478003304384E-31   1.87500427560586E-10   9.63415727704980E-14   0.00000000000000E+00   1.87496152163663E-14
      0.00000000000000E+00  -9.84876922209619E-13  -1.86515584704200E-10  -5.88285145432317E-25  -1.87500461626410E-10
     -9.79512206954564E-14
      1.30000000000000E-11
      7.63235086821621E-08   7.63234891821623E-08   0.00000000000000E+00   1.29897816555452E-13   1.94870683942030E-10
     -7.30544543796140E-32   1.95000581758585E-10   9.63415728661027E-14   0.00000000000000E+00   1.94996418385523E-14
      0.00000000000000E+00  -9.84991642746443E-13  -1.94015668967176E-10  -1.73395377480202E-25  -1.95000660609922E-10
     -9.79512207910628E-14
      1.35000000000000E-11
      8.02963609616272E-08   8.02963407116267E-08   0.00000000000000E+00   1.29354767360386E-13   2.02370518531390E-10
     -3.32580089215282E-31   2.02499873298750E-10   9.63415729654568E-14   0.00000000000000E+00   2.02495650726613E-14
      0.00000000000000E+00  -9.84663866336509E-13  -2.01515233733744E-10   7.88676210579507E-25  -2.02499897600080E-10
     -9.79512208904173E-14
      1.40000000000000E-11
      8.43263786428092E-08   8.43263576428087E-08   0.00000000000000E+00   1.29487504990155E-13   2.09870597711231E-10
     -3.63134706107272E-31   2.10000085216221E-10   9.63415730685595E-14   0.00000000000000E+00   2.09995889465834E-14
      0.00000000000000E+00  -9.84624621936309E-13  -2.09015449366725E-10   1.35728317258810E-25  -2.10000073988661E-10
     -9.79512209935208E-14
      1.45000000000000E-11
      8.84123883998067E-08   8.84123666498065E-08   0.00000000000000E+00   1.27160007664969E-13   2.17372930526329E-10
      4.40087074575988E-31   2.17500090533994E-10   9.63415731754118E-14   0.00000000000000E+00   2.17495842142363E-14
      0.00000000000000E+00  -9.84694580778798E-13  -2.16515433108114E-10   2.93512177563778E-25  -2.17500127688892E-10
     -9.79512211003709E-14
      1.50000000000000E-11
      9.25534656504727E-08   9.25534431504730E-08   0.00000000000000E+00   1.27028834622296E-13   2.24872766778410E-10
      1.73520046547104E-32   2.24999795613032E-10   9.63415732860133E-14   0.00000000000000E+00   2.24995413171092E-14
      0.00000000000000E+00  -9.84630579023091E-13  -2.24015171509808E-10   1.23371775414086E-24  -2.24999802088830E-10
     -9.79512212109755E-14
      1.55000000000000E-11
      9.67487481006068E-08   9.67487248506072E-08   0.00000000000000E+00   1.30151703734458E-13   2.32369571413854E-10
      1.63460913413938E-31   2.32499723117588E-10   9.63415734003639E-14   0.00000000000000E+00   2.32495389123694E-14
      0.00000000000000E+00  -9.84447596554770E-13  -2.31515245553692E-10   4.66153556329748E-25  -2.32499693150246E-10
     -9.79512213253261E-14
      1.60000000000000E-11
      1.00997398655975E-07   1.00997374655975E-07   0.00000000000000E+00   1.32791957072815E-13   2.39867609927113E-10
     -6.28695820822840E-32   2.40000401884185E-10   9.63415735184637E-14   0.00000000000000E+00   2.39996085724641E-14
      0.00000000000000E+00  -9.84751384261768E-13  -2.39015645942177E-10  -2.56936976553191E-25  -2.40000397326439E-10
     -9.79512214434235E-14
      1.65000000000000E-11
      1.05298446944853E-07   1.05298422194854E-07   0.00000000000000E+00   1.28002534429093E-13   2.47372330673481E-10
      4.97675611763360E-31   2.47500333207911E-10   9.63415736403122E-14   0.00000000000000E+00   2.47496114281262E-14
      0.00000000000000E+00  -9.84903774777433E-13  -2.46515432113573E-10  -6.14720482621519E-25  -2.47500335888351E-10
     -9.79512215652759E-14
      1.70000000000000E-11
      1.09651228757216E-07   1.09651203257216E-07   0.00000000000000E+00   1.32857467425782E-13   2.54867003681327E-10
      2.16522840691386E-31   2.54999861148753E-10   9.63415737659104E-14   0.00000000000000E+00   2.54995641326246E-14
      0.00000000000000E+00  -9.84459617606228E-13  -2.54015393957420E-10  -6.35338068276287E-25  -2.54999853575027E-10
     -9.79512216908753E-14
      1.75000000000000E-11
      1.14055025502891E-07   1.14054999252891E-07   0.00000000000000E+00   1.29749795133291E-13   2.62370562432400E-10
     -1.69496393293838E-31   2.62500312227534E-10   9.63415738952580E-14   0.00000000000000E+00   2.62496049919477E-14
      0.00000000000000E+00  -9.84888931624410E-13  -2.61515441982133E-10   1.18656594496585E-24  -2.62500330913756E-10
     -9.79512218202206E-14
      1.80000000000000E-11
      1.18509061938828E-07   1.18509034938828E-07   0.00000000000000E+00   1.30589799518018E-13   2.69869333017828E-10
      3.64643576077247E-32   2.69999922817346E-10   9.63415740283542E-14   0.00000000000000E+00   2.69995700017344E-14
      0.00000000000000E+00  -9.84579245642338E-13  -2.69015330256975E-10   1.84899035719426E-25  -2.69999909502617E-10
     -9.79512219533167E-14
      1.85000000000000E-11
      1.23012717535199E-07   1.23012689785199E-07   0.00000000000000E+00   1.30051088220383E-13   2.77369902691373E-10
     -7.10174799201480E-31   2.77499953779593E-10   9.63415741651993E-14   0.00000000000000E+00   2.77495713677048E-14
      0.00000000000000E+00  -9.84676071221277E-13  -2.76515301493592E-10  -7.07598503276636E-25  -2.77499977564814E-10
     -9.79512220901629E-14
      1.90000000000000E-11
      1.27565367805749E-07   1.27565339305748E-07   0.00000000000000E+00   1.27915722691321E-13   2.84872173067721E-10
      3.97335758760035E-31   2.85000088790413E-10   9.63415743057945E-14   0.00000000000000E+00   2.84995773467357E-14
      0.00000000000000E+00  -9.84657239503774E-13  -2.84015422326371E-10  -8.62700099300845E-25  -2.85000079565876E-10
     -9.79512222307571E-14
      1.95000000000000E-11
      1.32166400413631E-07   1.32166371163632E-07   0.00000000000000E+00   1.31725175261393E-13   2.92368476762958E-10
      1.30768730731151E-31   2.92500201938219E-10   9.63415744501391E-14   0.00000000000000E+00   2.92495972204292E-14
      0.00000000000000E+00  -9.84622892766908E-13  -2.91515584264098E-10   1.11758520606617E-24  -2.92500207156864E-10
     -9.79512223751019E-14
      2.00000000000000E-11
      1.36815167029059E-07   1.36815137029059E-07   0.00000000000000E+00   1.30918031489289E-13   2.99869574948103E-10
     -4.94406393495081E-31   3.00000492979592E-10   9.63415745982318E-14   0.00000000000000E+00   2.99996222153118E-14
      0.00000000000000E+00  -9.84887785166707E-13  -2.99015589827025E-10  -8.43129049218853E-25  -3.00000477612192E-10
     -9.79512225231948E-14
      2.05000000000000E-11
      1.41511141702298E-07   1.41511110952298E-07   0.00000000000000E+00   1.31330867147920E-13   3.07368983271351E-10
     -1.76537786487053E-31   3.07500314138499E-10   9.63415747500738E-14   0.00000000000000E+00   3.07495876842515E-14
      0.00000000000000E+00  -9.84916224794433E-13  -3.06515405837760E-10   3.94799568621033E-26  -3.07500322062555E-10
     -9.79512226750343E-14
      2.10000000000000E-11
      1.46253852976114E-07   1.46253821476114E-07   0.00000000000000E+00   1.31823101129503E-13   3.14868568027061E-10
     -3.19880433634661E-31   3.15000391128191E-10   9.63415749056658E-14   0.00000000000000E+00   3.14996054844639E-14
      0.00000000000000E+00  -9.84814367233268E-13  -3.14015529145774E-10  -1.12920422813976E-24  -3.15000343513008E-10
     -9.79512228306253E-14
      2.15000000000000E-11
      1.51042756490513E-07   1.51042724240513E-07   0.00000000000000E+00   1.30694009387184E-13   3.22369815246538E-10
      6.40263823925980E-31   3.22500509255926E-10   9.63415750650061E-14   0.00000000000000E+00   3.22496243398705E-14
      0.00000000000000E+00  -9.84891761272943E-13  -3.21515640753862E-10   3.19111111188360E-24  -3.22500532515132E-10
     -9.79512229899681E-14
      2.20000000000000E-11
      1.55877341220099E-07   1.55877308220100E-07   0.00000000000000E+00   1.31108084150703E-13   3.29869265216409E-10
      1.91123529530143E-32   3.30000373300560E-10   9.63415752280964E-14   0.00000000000000E+00   3.29996133367865E-14
      0.00000000000000E+00  -9.84821796649739E-13  -3.29015569331487E-10   4.50422552179592E-25  -3.30000391128137E-10
     -9.79512231530560E-14
      2.25000000000000E-11
      1.60757139425620E-07   1.60757105675620E-07   0.00000000000000E+00   1.32727038022287E-13   3.37367314110024E-10
      1.00591331331654E-32   3.37500041148047E-10   9.63415753949347E-14   0.00000000000000E+00   3.37495881780155E-14
      0.00000000000000E+00  -9.84689412076062E-13  -3.36515361687015E-10  -3.91440765621519E-24  -3.37500051099095E-10
     -9.79512233198955E-14
      2.30000000000000E-11
      1.65681792514284E-07   1.65681758014286E-07   0.00000000000000E+00   1.32362517132403E-13   3.44867932448816E-10
     -3.29939566767826E-31   3.45000294965949E-10   9.63415755655228E-14   0.00000000000000E+00   3.44995989798360E-14
      0.00000000000000E+00  -9.84820849870554E-13  -3.44015493727765E-10   1.00190588266403E-24  -3.45000314577634E-10
     -9.79512234904851E-14
      2.35000000000000E-11
      1.70650835951806E-07   1.70650800701806E-07   0.00000000000000E+00   1.33117216935203E-13   3.52367387972761E-10
      9.45558514517551E-32   3.52500505189696E-10   9.63415757398605E-14   0.00000000000000E+00   3.52496255220704E-14
      0.00000000000000E+00  -9.84863059962005E-13  -3.51515625611793E-10  -9.00960473045433E-25  -3.52500488671756E-10
     -9.79512236648211E-14
      2.40000000000000E-11
      1.75663802510993E-07   1.75663766510994E-07   0.00000000000000E+00   1.31853773596478E-13   3.59868469756705E-10
     -5.92482941543444E-31   3.60000323530301E-10   9.63415759179473E-14   0.00000000000000E+00   3.59996130612350E-14
      0.00000000000000E+00  -9.84791590190473E-13  -3.59015489179039E-10   5.33881749756776E-25  -3.60000280769229E-10
     -9.79512238429095E-14
      2.45000000000000E-11
      1.80720402246823E-07   1.80720365496822E-07   0.00000000000000E+00   1.31305565263087E-13   3.67369103299399E-10
      2.65561114715568E-31   3.67500408864662E-10   9.63415760997821E-14   0.00000000000000E+00   3.67496193250748E-14
      0.00000000000000E+00  -9.84797932586896E-13  -3.66515607504417E-10  -3.56432073436709E-25  -3.67500405437005E-10
     -9.79512240247452E-14
      2.50000000000000E-11
      1.85820203287811E-07   1.85820165787812E-07   0.00000000000000E+00   1.30440962027080E-13   3.74870016473197E-10
     -3.12839040441445E-31   3.75000457435224E-10   9.63415762853675E-14   0.00000000000000E+00   3.74996200129963E-14
      0.00000000000000E+00  -9.84846272526459E-13  -3.74015594548636E-10  -7.35739613873003E-25  -3.75000440821163E-10
     -9.79512242103286E-14
      2.55000000000000E-11
      1.90962840363891E-07   1.90962802113891E-07   0.00000000000000E+00   1.32237314078404E-13   3.82367942751205E-10
     -2.19289102303007E-31   3.82500180065284E-10   9.63415764747013E-14   0.00000000000000E+00   3.82495897259857E-14
      0.00000000000000E+00  -9.84755975068628E-13  -3.81515439272367E-10   1.53651279029291E-24  -3.82500195247434E-10
     -9.79512243996634E-14
      2.60000000000000E-11
      1.96148022526491E-07   1.96147983526491E-07   0.00000000000000E+00   1.30578940650864E-13   3.89869665133716E-10
     -5.83429721723596E-31   3.90000244074367E-10   9.63415766677849E-14   0.00000000000000E+00   3.89995932576505E-14
      0.00000000000000E+00  -9.84782329659755E-13  -3.89015456700762E-10  -1.65032977368766E-24  -3.90000239030424E-10
     -9.79512245927472E-14
      2.65000000000000E-11
      2.01375381224299E-07   2.01375341474299E-07   0.00000000000000E+00   1.31306111190389E-13   3.97368676379039E-10
      8.55026316319062E-32   3.97499982490229E-10   9.63415768646167E-14   0.00000000000000E+00   3.97495665101259E-14
      0.00000000000000E+00  -9.84721932710574E-13  -3.96515272012832E-10  -2.24041133794627E-24  -3.97499993945545E-10
     -9.79512247895789E-14
      2.70000000000000E-11
      2.06644697464024E-07   2.06644656964025E-07   0.00000000000000E+00   1.31241758583326E-13   4.04869105959420E-10
     -6.63902786788919E-32   4.05000347718003E-10   9.63415770651980E-14   0.00000000000000E+00   4.04996051173028E-14
      0.00000000000000E+00  -9.84758996157689E-13  -4.04015594576162E-10   3.04359072252244E-24  -4.05000353572317E-10
     -9.79512249901605E-14
      2.75000000000000E-11
      2.11955549647858E-07   2.11955508397857E-07   0.00000000000000E+00   1.29807966625814E-13   4.12370547836022E-10
      1.53804145606100E-30   4.12500355802647E-10   9.63415772695294E-14   0.00000000000000E+00   4.12496169134124E-14
      0.00000000000000E+00  -9.84745634093254E-13  -4.11515590438746E-10   2.49812291406952E-24  -4.12500336072837E-10
     -9.79512251944915E-14
      2.80000000000000E-11
      2.17307706587519E-07   2.17307664587519E-07   0.00000000000000E+00   1.33469869222258E-13   4.19866805127838E-10
     -8.59049969572329E-31   4.20000274997061E-10   9.63415774776087E-14   0.00000000000000E+00   4.19995965494001E-14
      0.00000000000000E+00  -9.84815208050983E-13  -4.19015486210967E-10  -7.55450747822742E-25  -4.20000301419019E-10
     -9.79512254025725E-14
      2.85000000000000E-11
      2.22700856380398E-07   2.22700813630397E-07   0.00000000000000E+00   1.31900001252791E-13   4.27368259967658E-10
      3.30945480081143E-31   4.27500159968911E-10   9.63415776894375E-14   0.00000000000000E+00   4.27495829050137E-14
      0.00000000000000E+00  -9.84826644163156E-13  -4.26515321446319E-10  -1.51388453509252E-24  -4.27500148090483E-10
     -9.79512256143996E-14
      2.90000000000000E-11
      2.28134846117155E-07   2.28134802617156E-07   0.00000000000000E+00   1.34616615473168E-13   4.34865651640577E-10
     -2.53490154955769E-31   4.35000268256050E-10   9.63415779050154E-14   0.00000000000000E+00   4.34996046270909E-14
      0.00000000000000E+00  -9.84698897997782E-13  -4.34015552784668E-10  -1.99154999319600E-25  -4.35000251682666E-10
     -9.79512258299769E-14
      2.95000000000000E-11
      2.33609353890890E-07   2.33609309640890E-07   0.00000000000000E+00   1.30650627866828E-13   4.42370085071917E-10
      5.13015789791437E-31   4.42500735699784E-10   9.63415781243431E-14   0.00000000000000E+00   4.42496577019470E-14
      0.00000000000000E+00  -9.84938477926369E-13  -4.41515786376544E-10  -3.25797405657272E-24  -4.42500724854474E-10
     -9.79512260493070E-14
      3.00000000000000E-11
      2.39124054527254E-07   2.39124009527255E-07   0.00000000000000E+00   1.31180256540054E-13   4.49868913207773E-10
      9.89818700303479E-31   4.50000093464314E-10   9.63415783474194E-14   0.00000000000000E+00   4.49995857886510E-14
      0.00000000000000E+00  -9.84708353118878E-13  -4.49015396069203E-10   7.88906942499419E-25  -4.50000104422321E-10
     -9.79512262723835E-14
      3.05000000000000E-11
      2.44678856090465E-07   2.44678810340466E-07   0.00000000000000E+00   1.30708584357242E-13   4.57369437359313E-10
      5.02956656658272E-31   4.57500145943670E-10   9.63415785742456E-14   0.00000000000000E+00   4.57495946866300E-14
      0.00000000000000E+00  -9.84626867748904E-13  -4.56515510667189E-10   2.94371656486357E-24  -4.57500137534935E-10
     -9.79512264992055E-14
      3.10000000000000E-11
      2.50273438714638E-07   2.50273392214640E-07   0.00000000000000E+00   1.32637712963674E-13   4.64867229244721E-10
      5.50234582384150E-31   4.64999866957685E-10   9.63415788048199E-14   0.00000000000000E+00   4.64995572975886E-14
      0.00000000000000E+00  -9.84621945346216E-13  -4.64015252398004E-10  -9.31005119738059E-25  -4.64999874343351E-10
     -9.79512267297802E-14
      3.15000000000000E-11
      2.55907701989356E-07   2.55907654739359E-07   0.00000000000000E+00   1.34130278480270E-13   4.72366065492094E-10
      5.53252322324099E-31   4.72500195770574E-10   9.63415790391437E-14   0.00000000000000E+00   4.72495923757823E-14
      0.00000000000000E+00  -9.84691276760354E-13  -4.71515465379982E-10   1.75017096923894E-24  -4.72500156656741E-10
     -9.79512269641038E-14
      3.20000000000000E-11
      2.61581377663242E-07   2.61581329663243E-07   0.00000000000000E+00   1.33748053842058E-13   4.79866900894061E-10
      5.43193189190934E-32   4.80000648947903E-10   9.63415792772164E-14   0.00000000000000E+00   4.79996319123825E-14
      0.00000000000000E+00  -9.84977549500232E-13  -4.79015670458072E-10   5.96706875964209E-25  -4.80000648007572E-10
     -9.79512272021782E-14
      3.25000000000000E-11
      2.67294167001235E-07   2.67294118251235E-07   0.00000000000000E+00   1.31816415022950E-13   4.87368262693535E-10
      5.55264148950732E-31   4.87500079108558E-10   9.63415795190390E-14   0.00000000000000E+00   4.87495712950204E-14
      0.00000000000000E+00  -9.84821109385078E-13  -4.86515237528827E-10   1.94853488155454E-24  -4.87500058638210E-10
     -9.79512274439998E-14
      3.30000000000000E-11
      2.73046100338019E-07   2.73046050838020E-07   0.00000000000000E+00   1.34050179222178E-13   4.94866138244616E-10
     -1.05017349910247E-30   4.95000188423838E-10   9.63415797646102E-14   0.00000000000000E+00   4.94995950040638E-14
      0.00000000000000E+00  -9.84632578295420E-13  -4.94015514392923E-10   2.69297643641635E-25  -4.95000146971218E-10
     -9.79512276895734E-14
      3.35000000000000E-11
      2.78836844241508E-07   2.78836793991508E-07   0.00000000000000E+00   1.30835691631730E-13   5.02369565003406E-10
      1.55514198238738E-30   5.02500400695038E-10   9.63415800139309E-14   0.00000000000000E+00   5.02496103747719E-14
      0.00000000000000E+00  -9.84856177865479E-13  -5.01515508517051E-10  -1.80861212470269E-25  -5.02500364694916E-10
     -9.79512279388949E-14
      3.40000000000000E-11
      2.84666217813898E-07   2.84666166813898E-07   0.00000000000000E+00   1.33562423352765E-13   5.09866276277717E-10
      8.65085449452228E-32   5.09999838701070E-10   9.63415802670003E-14   0.00000000000000E+00   5.09995528863884E-14
      0.00000000000000E+00  -9.84553979230535E-13  -5.09015251123595E-10  -1.31527341111157E-24  -5.09999805102827E-10
     -9.79512281919621E-14
      3.45000000000000E-11
      2.90534205170412E-07   2.90534153420415E-07   0.00000000000000E+00   1.35578908437993E-13   5.17364669944781E-10
     -1.26745077477885E-30   5.17500248853219E-10   9.63415805238193E-14   0.00000000000000E+00   5.17496010253250E-14
      0.00000000000000E+00  -9.84710082375057E-13  -5.16515522682797E-10  -1.35083915159601E-24  -5.17500232765174E-10
     -9.79512284487775E-14
      3.50000000000000E-11
      2.96440518904992E-07   2.96440466404994E-07   0.00000000000000E+00   1.33758598454316E-13   5.24866828058318E-10
     -1.40827863864316E-32   5.25000586656773E-10   9.63415807843867E-14   0.00000000000000E+00   5.24996253692483E-14
      0.00000000000000E+00  -9.85045201669045E-13  -5.24015538796042E-10  -2.70797400591582E-24  -5.25000583997714E-10
     -9.79512287093501E-14
      3.55000000000000E-11
      3.02385028280347E-07   3.02384975030348E-07   0.00000000000000E+00   1.32893709083654E-13   5.32367492730832E-10
      7.84612384386904E-31   5.32500386439916E-10   9.63415810487040E-14   0.00000000000000E+00   5.32496095100436E-14
      0.00000000000000E+00  -9.84871061036318E-13  -5.31515505613330E-10  -2.42535981054337E-24  -5.32500376674369E-10
     -9.79512289736648E-14
      3.60000000000000E-11