DF-ISE text

Info {
  version   = 1.0
  type      = xyplot
  datasets  = [
    "time"
    "ntype OuterVoltage" "ntype InnerVoltage" "ntype QuasiFermiPotential" "ntype DisplacementCurrent" "ntype eCurrent"
    "ntype hCurrent" "ntype TotalCurrent" "ntype Charge" "ptype OuterVoltage" "ptype InnerVoltage"
    "ptype QuasiFermiPotential" "ptype DisplacementCurrent" "ptype eCurrent" "ptype hCurrent" "ptype TotalCurrent"
    "ptype Charge" ]
  functions = [
    Time
    OuterVoltage InnerVoltage QuasiFermiPotential DisplacementCurrent eCurrent
    hCurrent TotalCurrent Charge OuterVoltage InnerVoltage
    QuasiFermiPotential DisplacementCurrent eCurrent hCurrent TotalCurrent
    Charge ]
}

Data {
      5.00000000000000E-13
     -4.17677774520022E-10  -4.17678524520023E-10   0.00000000000000E+00  -7.81068475878083E-12   7.33141341026655E-12
      6.23666254256257E-31  -4.79271348514279E-13   2.78824869526755E-30   0.00000000000000E+00   1.82062403172113E-15
      0.00000000000000E+00   5.61120429803723E-12  -5.13193294955832E-12   1.99227844601968E-27   4.79271348478915E-13
     -1.34089964368941E-27
      1.00000000000000E-12
      2.57583617123691E-09   2.57583467123690E-09   0.00000000000000E+00  -1.29353129503576E-11   1.48689325066330E-11
     -3.72519877320516E-29   1.93361955627541E-12   2.20912762678194E-30   0.00000000000000E+00   1.49960412806098E-15
      0.00000000000000E+00   1.28342361467030E-11  -1.47678557030960E-11   1.05337725693319E-25  -1.93361955639292E-12
     -1.55384684556138E-27
      1.50000000000000E-12
      4.19400279580387E-09   4.19400054580389E-09   0.00000000000000E+00  -1.98324552884656E-11   2.23581309288292E-11
     -4.86066429083956E-29   2.52567564036359E-12   1.07205440615222E-30   0.00000000000000E+00   2.24961350230853E-15
      0.00000000000000E+00   1.93392963888018E-11  -2.18649720292371E-11  -1.01338450309114E-25  -2.52567564043541E-12
     -1.31953718296992E-27
      2.00000000000000E-12
      6.21581328861758E-09   6.21581028861756E-09   0.00000000000000E+00  -2.63592332379076E-11   2.98568694345882E-11
      6.82521927870498E-29   3.49763619668053E-12   8.54316980925253E-31   0.00000000000000E+00   2.99955707483715E-15
      0.00000000000000E+00   2.59427298976576E-11  -2.94403660942095E-11   4.74497582113850E-26  -3.49763619655192E-12
     -7.46379700630796E-28
      2.50000000000000E-12
      8.31031737536101E-09   8.31031362536095E-09   0.00000000000000E+00  -3.29559917265840E-11   3.73464469584787E-11
     -3.35910605326091E-29   4.39045523189467E-12  -6.53061069135605E-30   0.00000000000000E+00   3.74950355293089E-15
      0.00000000000000E+00   3.25353242501579E-11  -3.69257794817111E-11  -7.07818778902082E-27  -4.39045523155326E-12
     -4.20499354207768E-28
      3.00000000000000E-12
      1.05309860607988E-08   1.05309815607988E-08   0.00000000000000E+00  -3.95432436493365E-11   4.48425148225494E-11
     -1.04441778886284E-29   5.29927117321289E-12  -6.04221355004834E-30   0.00000000000000E+00   4.49953357332158E-15
      0.00000000000000E+00   3.91294584087784E-11  -4.44287295813761E-11   3.93381968151053E-27  -5.29927117259769E-12
     -1.06439730669840E-27
      3.50000000000000E-12
      1.28584304155346E-08   1.28584251655346E-08   0.00000000000000E+00  -4.61317873484137E-11   5.23361348371518E-11
      9.96117289384393E-29   6.20434748873808E-12  -8.87582420890484E-31   0.00000000000000E+00   5.24951349823301E-15
      0.00000000000000E+00   4.57236971144521E-11  -5.19280446023003E-11  -1.69091039400057E-25  -6.20434748784838E-12
     -1.75910065840867E-27
      4.00000000000000E-12
      1.52884187796248E-08   1.52884127796248E-08   0.00000000000000E+00  -5.27148140959298E-11   5.98246300098498E-11
      3.94796456339731E-29   7.10981591392001E-12   3.41726792370101E-30   0.00000000000000E+00   5.99951109731698E-15
      0.00000000000000E+00   5.23184402258968E-11  -5.94282561385880E-11  -1.68824698702524E-25  -7.10981591269132E-12
     -2.14142338405997E-27
      4.50000000000000E-12
      1.78148939519614E-08   1.78148872019613E-08   0.00000000000000E+00  -5.93056757120330E-11   6.73206010697858E-11
      1.71840800009686E-28   8.01492535775280E-12  -2.57051127004058E-32   0.00000000000000E+00   6.74958228568261E-15
      0.00000000000000E+00   5.89136841788540E-11  -6.69286095350017E-11   4.98831989590083E-26  -8.01492535614763E-12
     -1.89661393896312E-27
      5.00000000000000E-12
      2.04329015621296E-08   2.04328940621295E-08   0.00000000000000E+00  -6.58910951545507E-11   7.48108679925842E-11
      1.41337861914168E-28   8.91977283803348E-12  -4.36382089725713E-30   0.00000000000000E+00   7.49951195367294E-15
      0.00000000000000E+00   6.55084341778166E-11  -7.44282070138270E-11   2.29882053513283E-26  -8.91977283601035E-12
     -2.45087665140199E-27
      5.50000000000000E-12
      2.31383550985895E-08   2.31383468485895E-08   0.00000000000000E+00  -7.24787443540871E-11   8.23032285135271E-11
      1.58780901723733E-28   9.82448415944005E-12  -9.84354609880247E-31   0.00000000000000E+00   8.24954493322300E-15
      0.00000000000000E+00   7.21039833462226E-11  -8.19284675031868E-11   5.31987508015944E-25  -9.82448415696372E-12
     -2.53163304311395E-27
      6.00000000000000E-12
      2.59273591343522E-08   2.59273501343520E-08   0.00000000000000E+00  -7.90686171854448E-11   8.97976272071974E-11
      1.05142586117755E-28   1.07290100217525E-11  -2.70659716080744E-31   0.00000000000000E+00   8.99954117935776E-15
      0.00000000000000E+00   7.86992699393163E-11  -8.94282799581049E-11  -3.28214320820504E-25  -1.07290100187889E-11
     -3.35112413252651E-27
      6.50000000000000E-12
      2.87966226188921E-08   2.87966128688920E-08   0.00000000000000E+00  -8.56536722309392E-11   9.72870684298171E-11
     -1.03483332107439E-28   1.16333961988778E-11   2.53724583007535E-30   0.00000000000000E+00   9.74950541554183E-15
      0.00000000000000E+00   8.52947690730469E-11  -9.69281652684423E-11  -2.94009502028296E-25  -1.16333961953957E-11
     -3.07413793459056E-27
      7.00000000000000E-12
      3.17431908308535E-08   3.17431803308534E-08   0.00000000000000E+00  -9.22448876126632E-11   1.04782567876067E-10
     -7.54294157123544E-29   1.25376802634043E-11  -2.32102047030135E-30   0.00000000000000E+00   1.04995416143545E-14
      0.00000000000000E+00   9.18907331062835E-11  -1.04428413365658E-10   4.23319030765231E-25  -1.25376802593740E-11
     -3.02521959305623E-27
      7.50000000000000E-12
      3.47643485238593E-08   3.47643372738595E-08   0.00000000000000E+00  -9.88312625075877E-11   1.12273105265136E-10
      1.33194993642870E-28   1.34418427575488E-11  -1.04135947745703E-29   0.00000000000000E+00   1.12495421310083E-14
      0.00000000000000E+00   9.84865469014634E-11  -1.11928389654406E-10   6.82155365514776E-26  -1.34418427529428E-11
     -3.65924678226991E-27
      8.00000000000000E-12
      3.78576891085947E-08   3.78576771085946E-08   0.00000000000000E+00  -1.05418814826426E-10   1.19764746844359E-10
      2.18333484655356E-28   1.43459320179328E-11  -3.95858735586250E-30   0.00000000000000E+00   1.19995765142361E-14
      0.00000000000000E+00   1.05082753352981E-10  -1.19428685365706E-10  -6.37293884986679E-26  -1.43459320127247E-11
     -3.18353889424349E-27
      8.50000000000000E-12
      4.10209270053058E-08   4.10209142553061E-08   0.00000000000000E+00  -1.12004300649457E-10   1.27254211940257E-10
     -3.93352342039301E-29   1.52499112908003E-11  -1.92334725617154E-30   0.00000000000000E+00   1.27495751613384E-14
      0.00000000000000E+00   1.11678543096843E-10  -1.26928454381808E-10  -1.67073799953885E-25  -1.52499112849655E-11
     -3.36757540465477E-27
      9.00000000000000E-12
      4.42520734042601E-08   4.42520599042600E-08   0.00000000000000E+00  -1.18591966924422E-10   1.34745779789224E-10
     -8.51405028391123E-30   1.61538128648015E-11  -3.21918734936259E-30   0.00000000000000E+00   1.34995575680520E-14
      0.00000000000000E+00   1.18274704451474E-10  -1.34428517309790E-10  -7.57885026232889E-26  -1.61538128583166E-11
     -3.43654978235722E-27
      9.50000000000000E-12
      4.75493268032859E-08   4.75493125532860E-08   0.00000000000000E+00  -1.25178140464112E-10   1.42235818425679E-10
      1.16110561929502E-28   1.70576779615676E-11  -3.19045810575625E-31   0.00000000000000E+00   1.42495946155464E-14
      0.00000000000000E+00   1.24870940275054E-10  -1.41928618229465E-10   7.86241159223827E-26  -1.70576779544102E-11
     -3.59036917675645E-27
      1.00000000000000E-11
      5.09108679499348E-08   5.09108529499351E-08   0.00000000000000E+00  -1.31766721863659E-10   1.49728175870702E-10
      7.21843393635952E-30   1.79614540070426E-11  -7.60266509750827E-30   0.00000000000000E+00   1.49995850029418E-14
      0.00000000000000E+00   1.31467153711007E-10  -1.49428607710199E-10  -6.69655774021213E-25  -1.79614539991917E-11
     -3.57331307844700E-27
      1.05000000000000E-11
      5.43352010989733E-08   5.43351853489734E-08   0.00000000000000E+00  -1.38358305489656E-10   1.57223529742863E-10
      8.11168495858461E-29   1.88652242532071E-11   6.03616528823648E-30   0.00000000000000E+00   1.57496015716657E-14
      0.00000000000000E+00   1.38063499760147E-10  -1.56928724004791E-10   4.41842707152679E-25  -1.88652242446428E-11
     -4.56331676485953E-27
      1.10000000000000E-11
      5.78207349284217E-08   5.78207184284216E-08   0.00000000000000E+00  -1.44942932178506E-10   1.64711834014474E-10
     -2.31440535127870E-28   1.97689018359674E-11  -4.47571374077655E-30   0.00000000000000E+00   1.64995594810152E-14
      0.00000000000000E+00   1.44659554400655E-10  -1.64428456227326E-10   2.30854691214195E-25  -1.97689018266708E-11
     -4.19352603768240E-27
      1.15000000000000E-11
      6.13661844463013E-08   6.13661671963011E-08   0.00000000000000E+00  -1.51530053064425E-10   1.72202623762081E-10
      6.92873090212436E-29   2.06725706976555E-11  -2.89106914606917E-30   0.00000000000000E+00   1.72495833966924E-14
      0.00000000000000E+00   1.51256110075877E-10  -1.71928680763485E-10  -6.58385553448041E-27  -2.06725706876084E-11
     -4.56568768348978E-27
      1.20000000000000E-11
      6.49702095670281E-08   6.49701915670285E-08   0.00000000000000E+00  -1.58122212058352E-10   1.79698410875129E-10
     -4.09382576600314E-28   2.15761988167770E-11  -6.20551661896856E-30   0.00000000000000E+00   1.79995962501785E-14
      0.00000000000000E+00   1.57852358423357E-10  -1.79428557229319E-10   3.02022494819885E-26  -2.15761988059621E-11
     -4.83677077789735E-27
      1.25000000000000E-11
      6.86316021293928E-08   6.86315833793931E-08   0.00000000000000E+00  -1.64708371565940E-10   1.87188169418754E-10
     -1.34390018659090E-29   2.24797978528141E-11  -5.33305485260773E-30   0.00000000000000E+00   1.87495663617798E-14
      0.00000000000000E+00   1.64448711406937E-10  -1.86928509248153E-10   5.01791406676126E-26  -2.24797978412155E-11
     -5.28221316381723E-27
      1.30000000000000E-11
      7.23492240302972E-08   7.23492045302969E-08   0.00000000000000E+00  -1.71299081281418E-10   1.94682448905738E-10
      2.60845393102740E-28   2.33833676243200E-11  -1.48182414390575E-31   0.00000000000000E+00   1.94995774098546E-14
      0.00000000000000E+00   1.71045292142970E-10  -1.94428659754892E-10  -3.89849639220042E-25  -2.33833676119221E-11
     -4.54405909925056E-27
      1.35000000000000E-11
      7.61219339409358E-08   7.61219136909356E-08   0.00000000000000E+00  -1.77883134060053E-10   2.02170007631831E-10
     -5.01427668422031E-28   2.42868735717782E-11   4.50141885347695E-30   0.00000000000000E+00   2.02495171698693E-14
      0.00000000000000E+00   1.77641272470139E-10  -2.01928146028705E-10  -8.86088018135949E-25  -2.42868735585662E-11
     -4.86060092943608E-27
      1.40000000000000E-11
      7.99488829538900E-08   7.99488619538896E-08   0.00000000000000E+00  -1.84471484339279E-10   2.09661906407251E-10
     -3.29698147572630E-28   2.51904220679722E-11  -5.52659923058725E-30   0.00000000000000E+00   2.09995710691612E-14
      0.00000000000000E+00   1.84238155055143E-10  -2.09428577109075E-10  -4.73090977723613E-25  -2.51904220539320E-11
     -5.29953538564640E-27
      1.45000000000000E-11
      8.38289652354030E-08   8.38289434854030E-08   0.00000000000000E+00  -1.91060403704596E-10   2.17154324402893E-10
     -2.53667195698913E-28   2.60939206982973E-11  -4.77812683136955E-31   0.00000000000000E+00   2.17495727163700E-14
      0.00000000000000E+00   1.90834626117752E-10  -2.16928546801167E-10  -6.28559789153654E-25  -2.60939206834157E-11
     -5.39625918854167E-27
      1.50000000000000E-11
      8.77613225645951E-08   8.77613000645947E-08   0.00000000000000E+00  -1.97648243197788E-10   2.24645646536623E-10
      2.64370113352601E-28   2.69974033388342E-11   6.15410639356775E-30   0.00000000000000E+00   2.24995839901954E-14
      0.00000000000000E+00   1.97431190765300E-10  -2.24428594088397E-10  -1.17496340299153E-24  -2.69974033230984E-11
     -5.64849589914348E-27
      1.55000000000000E-11
      9.17450574956719E-08   9.17450342456721E-08   0.00000000000000E+00  -2.04239542009021E-10   2.32140403723758E-10
     -2.06332938827490E-28   2.79008617147374E-11  -6.35067490245321E-30   0.00000000000000E+00   2.32495654932501E-14
      0.00000000000000E+00   2.04027638735265E-10  -2.31928500433399E-10  -1.35538169724371E-24  -2.79008616981354E-11
     -5.69731746848882E-27
      1.60000000000000E-11
      9.57794089237387E-08   9.57793849237393E-08   0.00000000000000E+00  -2.10823962763741E-10   2.39628272482695E-10
     -2.14219299203891E-28   2.88043097189544E-11   9.53357268094463E-30   0.00000000000000E+00   2.39995563033450E-14
      0.00000000000000E+00   2.10624208280068E-10  -2.39428517981543E-10   1.52617103517934E-25  -2.88043097014743E-11
     -5.70484150618277E-27
      1.65000000000000E-11
      9.98635651606770E-08   9.98635404106778E-08   0.00000000000000E+00  -2.17415361610786E-10   2.47123114378314E-10
      2.32406211908654E-29   2.97077527675281E-11   3.46867814910182E-30   0.00000000000000E+00   2.47495867616003E-14
      0.00000000000000E+00   2.17220878890439E-10  -2.46928631639598E-10   1.65501034370248E-25  -2.97077527491589E-11
     -5.14537728858571E-27
      1.70000000000000E-11
      1.03996709370281E-07   1.03996683870281E-07   0.00000000000000E+00  -2.23999892208929E-10   2.54611026102046E-10
      1.20934922180168E-28   3.06111338931164E-11  -5.30281354354843E-30   0.00000000000000E+00   2.54995185235960E-14
      0.00000000000000E+00   2.23817019231665E-10  -2.54428153105512E-10  -4.51902741584173E-25  -3.06111338738483E-11
     -5.47077377406378E-27
      1.75000000000000E-11
      1.08178317542668E-07   1.08178291292668E-07   0.00000000000000E+00  -2.30585523979519E-10   2.62100094768287E-10
      3.64961444684255E-28   3.15145707887678E-11  -4.50141885347695E-30   0.00000000000000E+00   2.62495605776558E-14
      0.00000000000000E+00   2.30413904070891E-10  -2.61928474839482E-10   3.56494905697959E-25  -3.15145707685900E-11
     -5.15643351117779E-27
      1.80000000000000E-11
      1.12407538160661E-07   1.12407511160660E-07   0.00000000000000E+00  -2.37178985445991E-10   2.69596935377388E-10
      5.16958969979638E-28   3.24179499313970E-11   5.86832602295736E-30   0.00000000000000E+00   2.69995683251057E-14
      0.00000000000000E+00   2.37010492411103E-10  -2.69428442321403E-10   7.82296047682064E-26  -3.24179499103001E-11
     -4.98579994894159E-27
      1.85000000000000E-11
      1.16683826969670E-07   1.16683799219670E-07   0.00000000000000E+00  -2.43767277118081E-10   2.77088626240250E-10
      5.79631393052512E-28   3.33213491221695E-11   3.14055994580841E-30   0.00000000000000E+00   2.77495402951373E-14
      0.00000000000000E+00   2.43607024695508E-10  -2.76928373795652E-10   1.23091600323919E-26  -3.33213491001444E-11
     -5.78804139566672E-27
      1.90000000000000E-11
      1.21006517980551E-07   1.21006489480551E-07   0.00000000000000E+00  -2.50349714181421E-10   2.84574431351359E-10
      6.80512427418402E-28   3.42247171699386E-11   2.90316566969289E-30   0.00000000000000E+00   2.84995314434704E-14
      0.00000000000000E+00   2.50203645737663E-10  -2.84428362884639E-10  -1.70239288441295E-25  -3.42247171469767E-11
     -4.99346914491903E-27
      1.95000000000000E-11
      1.25375094578703E-07   1.25375065328703E-07   0.00000000000000E+00  -2.56941758714696E-10   2.92069869112830E-10
     -3.89682770272323E-28   3.51281103981333E-11   1.09019919158780E-30   0.00000000000000E+00   2.92496022459921E-14
      0.00000000000000E+00   2.56800554098846E-10  -2.91928664473072E-10  -7.90349019492377E-25  -3.51281103742262E-11
     -5.41382334084331E-27
      2.00000000000000E-11
      1.29788883062018E-07   1.29788853062019E-07   0.00000000000000E+00  -2.63528294908663E-10   2.99559759665515E-10
     -1.47104762939411E-28   3.60314647568522E-11  -6.45954361506669E-30   0.00000000000000E+00   2.99995831291220E-14
      0.00000000000000E+00   2.63397187706615E-10  -2.99428652438607E-10   8.50294113822509E-25  -3.60314647319920E-11
     -5.72426852312247E-27
      2.05000000000000E-11
      1.34247399821845E-07   1.34247369071845E-07   0.00000000000000E+00  -2.70118179373506E-10   3.07052988974968E-10
     -2.15410300566858E-28   3.69348096014615E-11  -1.28525563502029E-30   0.00000000000000E+00   3.07495666285093E-14
      0.00000000000000E+00   2.69993722460629E-10  -3.06928532036268E-10  -1.48945986668106E-24  -3.69348095756408E-11
     -4.83386761222766E-27
      2.10000000000000E-11
      1.38750161612124E-07   1.38750130112125E-07   0.00000000000000E+00  -2.76703547306281E-10   3.14541714092371E-10
     -2.02663367060511E-28   3.78381667860901E-11  -5.28618082356581E-30   0.00000000000000E+00   3.14995791182055E-14
      0.00000000000000E+00   2.76590456067234E-10  -3.14428622826535E-10  -1.08715325450271E-24  -3.78381667593014E-11
     -4.74672425604238E-27
      2.15000000000000E-11
      1.43296604206935E-07   1.43296571956935E-07   0.00000000000000E+00  -2.83296795725761E-10   3.22038291995953E-10
      1.08091420995743E-28   3.87414962701927E-11  -4.08257672300563E-31   0.00000000000000E+00   3.22495736289643E-14
      0.00000000000000E+00   2.83187056142512E-10  -3.21928552384943E-10   9.71362685669138E-25  -3.87414962424294E-11
     -5.43124233486147E-27
      2.20000000000000E-11
      1.47886286094207E-07   1.47886253094208E-07   0.00000000000000E+00  -2.89883599778853E-10   3.29528413601389E-10
     -2.12448891772454E-29   3.96448138225360E-11   1.01610798439251E-30   0.00000000000000E+00   3.29995346488559E-14
      0.00000000000000E+00   2.89783512175795E-10  -3.29428325969584E-10  -1.24036366983476E-24  -3.96448137937911E-11
     -4.90572096255256E-27
      2.25000000000000E-11
      1.52518786524195E-07   1.52518752774195E-07   0.00000000000000E+00  -2.96470890504732E-10   3.37019042880513E-10
      4.26893515558528E-28   4.05481523757812E-11  -8.46756653660428E-31   0.00000000000000E+00   3.37495441861013E-14
      0.00000000000000E+00   2.96380313230421E-10  -3.36928465576470E-10   3.49040395977923E-25  -4.05481523460485E-11
     -4.97537274557794E-27
      2.30000000000000E-11
      1.57193612882166E-07   1.57193578382165E-07   0.00000000000000E+00  -3.03057066666561E-10   3.44508529457834E-10
     -4.48331540091930E-28   4.14514627912728E-11   2.92282252058144E-30   0.00000000000000E+00   3.44995460467634E-14
      0.00000000000000E+00   3.02976929253699E-10  -3.44428392014246E-10   8.90896830990444E-25  -4.14514627605465E-11
     -4.72816818880359E-27
      2.35000000000000E-11
      1.61910411244660E-07   1.61910375994660E-07   0.00000000000000E+00  -3.09642690906451E-10   3.51997489737357E-10
     -1.77298256951921E-28   4.23547988309053E-11   3.46262988728996E-31   0.00000000000000E+00   3.52495757393288E-14
      0.00000000000000E+00   3.09573809768474E-10  -3.51928608567655E-10   8.13512901568396E-25  -4.23547987991795E-11
     -4.59467095409221E-27
      2.40000000000000E-11
      1.66668723819833E-07   1.66668687819833E-07   0.00000000000000E+00  -3.16232995175344E-10   3.59491111526570E-10
      6.72497310137896E-28   4.32581163512261E-11  -6.38696447332437E-30   0.00000000000000E+00   3.59996135498833E-14
      0.00000000000000E+00   3.16170659777911E-10  -3.59428776096406E-10  -6.07415330361610E-25  -4.32581163184953E-11
     -4.25183128154873E-27
      2.45000000000000E-11
      1.71468121372458E-07   1.71468084622457E-07   0.00000000000000E+00  -3.22822243980523E-10   3.66983645330502E-10
     -3.67407825862241E-28   4.41614013499791E-11   1.93846791070119E-30   0.00000000000000E+00   3.67495741800629E-14
      0.00000000000000E+00   3.22766965744144E-10  -3.66928367060381E-10  -9.13395297386051E-25  -4.41614013162381E-11
     -3.70528615118179E-27
      2.50000000000000E-11
      1.76308344493947E-07   1.76308306993947E-07   0.00000000000000E+00  -3.29407312985555E-10   3.74472026727097E-10
     -2.53908614894109E-28   4.50647137415412E-11   6.00592397917717E-30   0.00000000000000E+00   3.74995724779317E-14
      0.00000000000000E+00   3.29363828264854E-10  -3.74428541971639E-10   8.85530243227368E-25  -4.50647137067845E-11
     -4.63797650866513E-27
      2.55000000000000E-11
      1.81188986646756E-07   1.81188948396755E-07   0.00000000000000E+00  -3.35999281434965E-10   3.81967308620529E-10
     -3.18029553138159E-29   4.59680271855644E-11   7.40912071952874E-32   0.00000000000000E+00   3.82496087239173E-14
      0.00000000000000E+00   3.35960677121684E-10  -3.81928704271474E-10   1.53979248557837E-24  -4.59680271497881E-11
     -4.23424293619984E-27
      2.60000000000000E-11
      1.86109658017153E-07   1.86109619017154E-07   0.00000000000000E+00  -3.42583865309959E-10   3.89455177692395E-10
      5.18375295924788E-28   4.68713123824361E-11  -6.56236406586831E-31   0.00000000000000E+00   3.89995772924761E-14
      0.00000000000000E+00   3.42557367575825E-10  -3.89428679921459E-10  -7.30478089139009E-25  -4.68713123456346E-11
     -4.65503260697458E-27
      2.65000000000000E-11
      1.91070076316817E-07   1.91070036566817E-07   0.00000000000000E+00  -3.49173241441958E-10   3.96947831861466E-10
     -7.28764077231570E-28   4.77745904195072E-11  -4.02058203943407E-30   0.00000000000000E+00   3.97495802868340E-14
      0.00000000000000E+00   3.49153904992117E-10  -3.96928495373793E-10  -6.36162111799601E-25  -4.77745903816764E-11
     -4.77551398226683E-27
      2.70000000000000E-11
      1.96069927110349E-07   1.96069886610350E-07   0.00000000000000E+00  -3.55759871069952E-10   4.04437743233286E-10
     -2.06011046567228E-28   4.86778721633337E-11   8.83802257258071E-30   0.00000000000000E+00   4.04995692673733E-14
      0.00000000000000E+00   3.55750559632464E-10  -4.04428431756934E-10   2.21470115501633E-25  -4.86778721244699E-11
     -5.09684603580734E-27
      2.75000000000000E-11
      2.01108926002979E-07   2.01108884752979E-07   0.00000000000000E+00  -3.62349981079329E-10   4.11931156514783E-10
     -6.25372283235642E-28   4.95811754354543E-11  -6.20551661896856E-30   0.00000000000000E+00   4.12495879379805E-14
      0.00000000000000E+00   3.62347363898014E-10  -4.11928539293567E-10   2.36138102017220E-25  -4.95811753955528E-11
     -4.29392718375928E-27
      2.80000000000000E-11
      2.06186692135905E-07   2.06186650135906E-07   0.00000000000000E+00  -3.68939729155006E-10   4.19424155527245E-10
      1.47941682816091E-28   5.04844263722387E-11  -1.00854765712769E-30   0.00000000000000E+00   4.19995504307256E-14
      0.00000000000000E+00   3.68943907408098E-10  -4.19428333739392E-10  -1.40424957759992E-24  -5.04844263312958E-11
     -4.62515419362399E-27
      2.85000000000000E-11
      2.11303054430855E-07   2.11303011680855E-07   0.00000000000000E+00  -3.75525339716887E-10   4.26913056810248E-10
      6.85630514356556E-28   5.13877170933612E-11  -1.12800082791193E-30   0.00000000000000E+00   4.27495380527546E-14
      0.00000000000000E+00   3.75540613369077E-10  -4.26928330420451E-10  -5.09135700486248E-26  -5.13877170513733E-11
     -4.14233354970681E-27
      2.90000000000000E-11
      2.16457692353591E-07   2.16457648853590E-07   0.00000000000000E+00  -3.82114572145551E-10   4.34405563895088E-10
      8.72714296020421E-28   5.22909917495370E-11   1.59371698742516E-30   0.00000000000000E+00   4.34995597077890E-14
      0.00000000000000E+00   3.82137557171921E-10  -4.34428548878421E-10   2.64044358385216E-25  -5.22909917065005E-11
     -4.21280789633861E-27
      2.95000000000000E-11
      2.21650329554210E-07   2.21650285304210E-07   0.00000000000000E+00  -3.88703077526150E-10   4.41897340116797E-10
      3.15840685768382E-28   5.31942625906472E-11  -1.16126626787716E-30   0.00000000000000E+00   4.42495571284133E-14
      0.00000000000000E+00   3.88734060427655E-10  -4.41928322974213E-10  -1.13511674636450E-24  -5.31942625465586E-11
     -4.06486741242051E-27
      3.00000000000000E-11
      2.26880782646346E-07   2.26880737646347E-07   0.00000000000000E+00  -3.95290837239868E-10   4.49388387157979E-10
      8.24430456981226E-28   5.40975499181107E-11   4.12642662114162E-30   0.00000000000000E+00   4.49995797951106E-14
      0.00000000000000E+00   3.95331137004061E-10  -4.49428686877027E-10  -8.30772507049799E-25  -5.40975498729668E-11
     -4.66531465205474E-27
      3.05000000000000E-11
      2.32148715919349E-07   2.32148670169349E-07   0.00000000000000E+00  -4.01878214917377E-10   4.56879032197705E-10
      8.61126174651014E-28   5.50008172803281E-11  -1.18107432531100E-29   0.00000000000000E+00   4.57495779981398E-14
      0.00000000000000E+00   4.01927767145405E-10  -4.56928584379530E-10  -4.46990408178778E-25  -5.50008172341257E-11
     -4.50493894185145E-27
      3.10000000000000E-11
      2.37453952922892E-07   2.37453906422891E-07   0.00000000000000E+00  -4.08471527178984E-10   4.64375597165110E-10
      7.10480596848728E-28   5.59040699861256E-11  -2.36335830298437E-30   0.00000000000000E+00   4.64995868442341E-14
      0.00000000000000E+00   4.08524468292058E-10  -4.64428538230919E-10  -1.01607532321609E-24  -5.59040699388620E-11
     -4.19700983648603E-27
      3.15000000000000E-11
      2.42796269441160E-07   2.42796222191162E-07   0.00000000000000E+00  -4.15055477859022E-10   4.71862829391753E-10
      9.70569543139854E-28   5.68073515327311E-11  -6.39452480058919E-30   0.00000000000000E+00   4.72495504543225E-14
      0.00000000000000E+00   4.15121057964457E-10  -4.71928409448860E-10  -8.05981137705898E-25  -5.68073514844034E-11
     -4.53387382635939E-27
      3.20000000000000E-11
      2.48175427084781E-07   2.48175379084783E-07   0.00000000000000E+00  -4.21641683336546E-10   4.79352272671501E-10
     -2.75539774783668E-28   5.77105893349542E-11  -5.15160699825192E-30   0.00000000000000E+00   4.79995695912288E-14
      0.00000000000000E+00   4.21717921067670E-10  -4.79428510353227E-10  -1.84603202652148E-24  -5.77105892855592E-11
     -5.52803871689848E-27
      3.25000000000000E-11
      2.53591244026855E-07   2.53591195276855E-07   0.00000000000000E+00  -4.28230014616088E-10   4.86843872500070E-10
      1.16396241310484E-28   5.86138578839824E-11   8.38893913305009E-30   0.00000000000000E+00   4.87495746610173E-14
      0.00000000000000E+00   4.28314547054346E-10  -4.86928404887862E-10  -2.28517341382605E-24  -5.86138578335178E-11
     -4.10652783978060E-27
      3.30000000000000E-11
      2.59043557672661E-07   2.59043508172660E-07   0.00000000000000E+00  -4.34820786464424E-10   4.94337926268946E-10
     -1.17040025831007E-28   5.95171398045216E-11  -5.26803603813023E-30   0.00000000000000E+00   4.94996004150651E-14
      0.00000000000000E+00   4.34911612992840E-10  -4.94428752745822E-10  -1.79550987746133E-24  -5.95171397529846E-11
     -4.30948331313938E-27
      3.35000000000000E-11
      2.64532082512317E-07   2.64532032262319E-07   0.00000000000000E+00  -4.41410570620740E-10   5.01830951160726E-10
     -4.85413528474032E-29   6.04203805399859E-11  -3.53823315993821E-31   0.00000000000000E+00   5.02495888815440E-14
      0.00000000000000E+00   4.41508179630867E-10  -5.01928560118241E-10  -3.63267518853856E-25  -6.04203804873745E-11
     -4.23378326830214E-27
      3.40000000000000E-11
      2.70056698135880E-07   2.70056647135880E-07   0.00000000000000E+00  -4.47998181934397E-10   5.09321812578665E-10
     -2.23393228621338E-28   6.13236306442678E-11  -3.47321434546072E-30   0.00000000000000E+00   5.09995735459771E-14
      0.00000000000000E+00   4.48104972999840E-10  -5.09428603590418E-10  -2.12094140750265E-24  -6.13236305905792E-11
     -4.46325432144411E-27
      3.45000000000000E-11
      2.75617193714523E-07   2.75617141964522E-07   0.00000000000000E+00  -4.54582629601048E-10   5.16809501992434E-10
     -8.94860483526398E-29   6.22268723913859E-11  -8.57341111831183E-31   0.00000000000000E+00   5.17495411981946E-14
      0.00000000000000E+00   4.54701429623513E-10  -5.16928301960131E-10   4.09154419366241E-25  -6.22268723366183E-11
     -4.14489801271504E-27
      3.50000000000000E-11
      2.81213467493328E-07   2.81213414993328E-07   0.00000000000000E+00  -4.61176460124661E-10   5.24306585405502E-10
      6.26144824660269E-28   6.31301252808418E-11  -3.09217385131353E-30   0.00000000000000E+00   5.24995785502026E-14
      0.00000000000000E+00   4.61298492093327E-10  -5.24428617318320E-10   2.51498285649272E-26  -6.31301252249926E-11
     -4.45873022160884E-27
      3.55000000000000E-11
      2.86845270312023E-07   2.86845217062024E-07   0.00000000000000E+00  -4.67759728943938E-10   5.31793098664065E-10
     -2.59445161770603E-28   6.40333697201272E-11  -1.83111126354067E-30   0.00000000000000E+00   5.32495262069962E-14
      0.00000000000000E+00   4.67894792959927E-10  -5.31928162623119E-10  -2.05733343676456E-24  -6.40333696631945E-11
     -4.19325991416267E-27
      3.60000000000000E-11