DF-ISE text

Info {
  version   = 1.0
  type      = xyplot
  datasets  = [
    "time"
    "ntype OuterVoltage" "ntype InnerVoltage" "ntype QuasiFermiPotential" "ntype DisplacementCurrent" "ntype eCurrent"
    "ntype hCurrent" "ntype TotalCurrent" "ntype Charge" "ptype OuterVoltage" "ptype InnerVoltage"
    "ptype QuasiFermiPotential" "ptype DisplacementCurrent" "ptype eCurrent" "ptype hCurrent" "ptype TotalCurrent"
    "ptype Charge" ]
  functions = [
    Time
    OuterVoltage InnerVoltage QuasiFermiPotential DisplacementCurrent eCurrent
    hCurrent TotalCurrent Charge OuterVoltage InnerVoltage
    QuasiFermiPotential DisplacementCurrent eCurrent hCurrent TotalCurrent
    Charge ]
}

Data {
      5.00000000000000E-14
     -5.06876219862590E-08  -5.06876220612588E-08   0.00000000000000E+00  -3.27505312648181E-11  -6.15900942533838E-14
      3.33802273890962E-29  -3.28121213590714E-11  -3.68641557432879E-30   0.00000000000000E+00   6.76695753528148E-14
      0.00000000000000E+00  -5.70505432763464E-10   6.03317554122532E-10   3.42675613877932E-24   3.28121213590716E-11
     -1.73694224643474E-26
      1.00000000000000E-13
     -1.17469711056415E-08  -1.17469712556415E-08   0.00000000000000E+00  -2.74944222063392E-11   1.50032421232796E-12
     -1.70240769145692E-29  -2.59940979940112E-11   9.60161562632806E-30   0.00000000000000E+00   1.52839601708130E-16
      0.00000000000000E+00  -1.15527961919869E-10   1.41522059913881E-10  -2.08423020480332E-25   2.59940979940112E-11
     -7.16068231734477E-27
      1.50000000000000E-13
     -4.52086172517854E-09  -4.52086195017851E-09   0.00000000000000E+00  -1.53405897301024E-11   2.17677595544873E-12
      2.96832947799952E-28  -1.31638137746537E-11  -3.91322539227355E-30   0.00000000000000E+00   2.24093155428316E-16
      0.00000000000000E+00  -1.87911724277136E-11   3.19549862023670E-11   9.37369575416504E-26   1.31638137746535E-11
     -4.45439966615155E-27
      2.00000000000000E-13
     -2.54822472144361E-09  -2.54822502144361E-09   0.00000000000000E+00  -9.08757962224112E-12   2.93673604240157E-12
      4.11619727809130E-29  -6.15084357983955E-12   5.14707080189303E-30   0.00000000000000E+00   2.96036249647109E-16
      0.00000000000000E+00   6.31745251014430E-13   5.51909832882522E-12  -8.71626878580893E-26   6.15084357983956E-12
     -5.11859558528279E-27
      2.50000000000000E-13
     -1.93781976574193E-09  -1.93782014074193E-09   0.00000000000000E+00  -6.35938833523171E-12   3.68060690310779E-12
     -6.60201025795914E-29  -2.67878143212392E-12  -2.02314357606724E-30   0.00000000000000E+00   3.73665035446725E-16
      0.00000000000000E+00   3.97909579954082E-12  -1.30031436741697E-12   8.72312765603144E-26   2.67878143212394E-12
     -6.79614148142033E-27
      3.00000000000000E-13
     -1.66533362184761E-09  -1.66533407184762E-09   0.00000000000000E+00  -5.45111411803979E-12   4.42643526224640E-12
     -2.05850100437098E-29  -1.02467885579338E-12   1.66327199826155E-31   0.00000000000000E+00   4.48380230110617E-16
      0.00000000000000E+00   4.50752300449721E-12  -3.48284414870387E-12  -2.94919710737157E-26   1.02467885579331E-12
     -6.60910503315037E-27
      3.50000000000000E-13
     -1.48705859474724E-09  -1.48705911974724E-09   0.00000000000000E+00  -5.41454808503633E-12   5.18298746290239E-12
      2.56186002635457E-29  -2.31560622133940E-13   1.30642455136180E-30   0.00000000000000E+00   5.23155231535222E-16
      0.00000000000000E+00   4.80340059730881E-12  -4.57183997517489E-12  -1.95207135216883E-26   2.31560622133897E-13
     -6.80148814486202E-27
      4.00000000000000E-13
     -1.33879502991481E-09  -1.33879562991481E-09   0.00000000000000E+00  -5.76357789478230E-12   5.92824771865985E-12
     -2.45040483123910E-30   1.64669823877543E-13   5.42529084523860E-30   0.00000000000000E+00   5.98406507696341E-16
      0.00000000000000E+00   5.23984546804621E-12  -5.40451529192364E-12  -7.40343346563819E-27  -1.64669823877440E-13
     -6.79311735051440E-27
      4.50000000000000E-13
     -1.20323232186854E-09  -1.20323299686854E-09   0.00000000000000E+00  -6.30263155462604E-12   6.68273847497987E-12
     -4.99375605262865E-29   3.80106920353830E-13   1.72375461638016E-30   0.00000000000000E+00   6.73698281039540E-16
      0.00000000000000E+00   5.79246554200981E-12  -6.17257246236363E-12  -6.21640747208563E-27  -3.80106920353829E-13
     -7.16774668714102E-27
      5.00000000000000E-13
     -1.07410482172090E-09  -1.07410557172090E-09   0.00000000000000E+00  -6.91921450534852E-12   7.43290501742637E-12
     -2.47816803868664E-29   5.13690512077849E-13   3.93137017770913E-30   0.00000000000000E+00   7.48387439792568E-16
      0.00000000000000E+00   6.41363155919783E-12  -6.92732207127569E-12   3.35535341820209E-26  -5.13690512077831E-13
     -7.02401579344398E-27
      5.50000000000000E-13
     -9.49084335001845E-10  -9.49085160001850E-10   0.00000000000000E+00  -7.56179209301969E-12   8.17207695718838E-12
      4.45317823805234E-29   6.10284864168688E-13   3.79830841784820E-30   0.00000000000000E+00   8.23116581400633E-16
      0.00000000000000E+00   7.06785063512560E-12  -7.67813549929429E-12   2.43849481760943E-28  -6.10284864168698E-13
     -7.48305467191692E-27
      6.00000000000000E-13
     -8.26864113550074E-10  -8.26865013550079E-10   0.00000000000000E+00  -8.23783126186742E-12   8.92799783542898E-12
     -2.13253622423107E-30   6.90166573561569E-13   1.58162046380144E-30   0.00000000000000E+00   8.98431227798806E-16
      0.00000000000000E+00   7.73791347836160E-12  -8.42808005192316E-12  -7.34425981025170E-26  -6.90166573561637E-13
     -7.08232103731031E-27
      6.50000000000000E-13
     -7.06528134985191E-10  -7.06529109985191E-10   0.00000000000000E+00  -8.91729457090614E-12   9.67993529030709E-12
      3.94941685074342E-29   7.62640719400960E-13  -3.72875340701181E-30   0.00000000000000E+00   9.73801078140488E-16
      0.00000000000000E+00   8.41627296817988E-12  -9.17891368758100E-12   6.65345749318605E-26  -7.62640719401055E-13
     -7.65712364686226E-27
      7.00000000000000E-13
     -5.87773100853869E-10  -5.87774150853866E-10   0.00000000000000E+00  -9.59256691854835E-12   1.04243779781756E-11
      2.25304463916640E-29   8.31811059627282E-13   7.49682051580071E-30   0.00000000000000E+00   1.04881732208793E-15
      0.00000000000000E+00   9.09802975530769E-12  -9.92984081493521E-12   9.87410905960192E-26  -8.31811059627416E-13
     -7.72779153787203E-27
      7.50000000000000E-13
     -4.70163618517016E-10  -4.70164743517015E-10   0.00000000000000E+00  -1.02801177539280E-11   1.11796084118824E-11
     -3.47422340153268E-29   8.99490657954426E-13   2.75195912439639E-31   0.00000000000000E+00   1.12432068237385E-15
      0.00000000000000E+00   9.78053916938796E-12  -1.06800298273427E-11   9.20905550798257E-26  -8.99490657954601E-13
     -7.81348331122247E-27
      8.00000000000000E-13
     -3.53545972665578E-10  -3.53547172665579E-10   0.00000000000000E+00  -1.09543565793034E-11   1.19209248221020E-11
     -3.10505321554551E-29   9.66568242798618E-13  -4.82953705677037E-30   0.00000000000000E+00   1.19861918062380E-15
      0.00000000000000E+00   1.04626657111839E-11  -1.14292339539828E-11  -4.96888987552347E-28  -9.66568242798842E-13
     -8.45169589760995E-27
      8.50000000000000E-13
     -2.37517460365295E-10  -2.37518735365295E-10   0.00000000000000E+00  -1.16344179360235E-11   1.26677684001904E-11
      2.00347754613256E-29   1.03335046416690E-12   4.39406220631643E-30   0.00000000000000E+00   1.27423269888284E-15
      0.00000000000000E+00   1.11459820020153E-11  -1.21793324661828E-11  -2.82407346156342E-27  -1.03335046416747E-12
     -8.06719579770638E-27
      9.00000000000000E-13
     -1.22158386932662E-10  -1.22159736932662E-10   0.00000000000000E+00  -1.23218603485995E-11   1.34218819404199E-11
     -7.11432190843126E-30   1.10002159182048E-12  -1.72375461638016E-31   0.00000000000000E+00   1.34897340134345E-15
      0.00000000000000E+00   1.18280651683963E-11  -1.29280867602175E-11   4.55444051356398E-26  -1.10002159182117E-12
     -7.98377817079720E-27
      9.50000000000000E-13
     -6.97380694356206E-12  -6.97523194356251E-12   0.00000000000000E+00  -1.30030497646009E-11   1.41697826368766E-11
     -5.12688867964610E-29   1.16673287227565E-12   7.95044015169023E-30   0.00000000000000E+00   1.42403016951881E-15
      0.00000000000000E+00   1.25121175829951E-11  -1.36788504552716E-11  -1.10575155758705E-25  -1.16673287227665E-12
     -7.79260471144792E-27
      1.00000000000000E-12
      1.07804688643572E-10   1.07803188643572E-10   0.00000000000000E+00  -1.36846872343496E-11   1.49181539653812E-11
     -2.39910325225996E-29   1.23346673103160E-12   2.64913867359477E-30   0.00000000000000E+00   1.49892633004884E-15
      0.00000000000000E+00   1.31952863649373E-11  -1.44287530959701E-11  -8.45871519372835E-26  -1.23346673103283E-12
     -7.62642266990525E-27
      1.05000000000000E-12
      2.22442540614794E-10   2.22440965614794E-10   0.00000000000000E+00  -1.43711110227851E-11   1.56713206033067E-11
      1.81869127047631E-30   1.30020958052157E-12  -3.97068387948622E-30   0.00000000000000E+00   1.57420988514909E-15
      0.00000000000000E+00   1.38785783850288E-11  -1.51787879655519E-11  -1.14780684174499E-25  -1.30020958052324E-12
     -7.60208446437433E-27
      1.10000000000000E-12
      3.36881448814479E-10   3.36879798814477E-10   0.00000000000000E+00  -1.50578390928328E-11   1.64248305094330E-11
     -1.40626681201653E-30   1.36699141660013E-12   2.09269858690363E-30   0.00000000000000E+00   1.64875576580316E-15
      0.00000000000000E+00   1.45613947920285E-11  -1.59283862086308E-11  -4.14724640196811E-26  -1.36699141660234E-12
     -7.54936781442215E-27
      1.15000000000000E-12
      4.51444544926881E-10   4.51442819926882E-10   0.00000000000000E+00  -1.57311866422516E-11   1.71650178641371E-11
      3.91677496372629E-29   1.43383122188545E-12   2.37696689206106E-30   0.00000000000000E+00   1.72379665189543E-15
      0.00000000000000E+00   1.52457322364247E-11  -1.66795634583129E-11   6.66033854379713E-26  -1.43383122188807E-12
     -7.56627875444812E-27
      1.20000000000000E-12
      5.65808429923354E-10   5.65806629923352E-10   0.00000000000000E+00  -1.64159756770351E-11   1.79165983189662E-11
      1.49961556749230E-29   1.50062264193118E-12  -3.05739634589533E-30   0.00000000000000E+00   1.79884512257152E-15
      0.00000000000000E+00   1.59277692666614E-11  -1.74283919085958E-11   4.72224948727473E-27  -1.50062264193446E-12
     -7.50020754241536E-27
      1.25000000000000E-12
      6.80335642849586E-10   6.80333767849590E-10   0.00000000000000E+00  -1.70998799370891E-11   1.86673172301148E-11
      2.66868802022879E-29   1.56743729302577E-12   3.95858735586250E-30   0.00000000000000E+00   1.87388104045668E-15
      0.00000000000000E+00   1.66109164363378E-11  -1.81783537293674E-11  -4.19413891200800E-26  -1.56743729302970E-12
     -7.34191243427535E-27
      1.30000000000000E-12
      7.95001461430231E-10   7.94999511430231E-10   0.00000000000000E+00  -1.77885748376569E-11   1.94228851073041E-11
      1.48271622382859E-30   1.63431026964717E-12  -2.04733662331468E-30   0.00000000000000E+00   1.94895755360845E-15
      0.00000000000000E+00   1.72944805762717E-11  -1.89287908459233E-11  -8.45519839504583E-26  -1.63431026965167E-12
     -7.57339151033886E-27
      1.35000000000000E-12
      9.09771951329381E-10   9.09769926329388E-10   0.00000000000000E+00  -1.84575312489365E-11   2.01587409980242E-11
     -1.26911053174582E-29   1.70120974908773E-12   2.73381433896081E-30   0.00000000000000E+00   2.02357080893894E-15
      0.00000000000000E+00   1.79773802277782E-11  -1.96785899769593E-11   7.07050226866786E-26  -1.70120974918102E-12
     -7.37904876180017E-27
      1.40000000000000E-12
      1.73897679625817E-10   1.73895579625817E-10   0.00000000000000E+00   1.23129215942059E-09   1.11112902077282E-09
     -4.00815092201199E-26   2.34242118019341E-09   5.62488348502998E-30   0.00000000000000E+00   2.11139087909834E-15
      0.00000000000000E+00  -2.80801927849287E-09   4.59219461663202E-10  -1.24243614096323E-24  -2.34879981682967E-09
     -9.08427150398879E-27
      1.45000000000000E-12
     -4.61405988237659E-09  -4.61406205737658E-09   0.00000000000000E+00   7.80303946471287E-09   1.19949518601552E-09
     -2.71604963794234E-25   9.00253465072839E-09   4.79022335499328E-30   0.00000000000000E+00   2.17290036317015E-15
      0.00000000000000E+00  -9.64272165016521E-09   6.31117575863940E-10   2.26645112991402E-25  -9.01160407430127E-09
     -2.06273307858295E-26
      1.50000000000000E-12
     -1.18005368766705E-08  -1.18005391266705E-08   0.00000000000000E+00   1.23326283839891E-08   1.02776352525203E-09
     -5.37936044796346E-25   1.33603919092411E-08  -3.02413090593010E-32   0.00000000000000E+00   2.25054198410110E-15
      0.00000000000000E+00  -1.38273677126700E-08   4.58508265013941E-10  -7.01294564282296E-25  -1.33688594476560E-08
     -3.41306801069886E-26
      1.55000000000000E-12
     -2.05644360533091E-08  -2.05644383783090E-08   0.00000000000000E+00   1.59409240607165E-08   9.56138643812695E-10
     -5.63250682198527E-25   1.68970627045292E-08  -2.97272068052929E-30   0.00000000000000E+00   2.32438487742552E-15
      0.00000000000000E+00  -1.72699910561148E-08   3.64388674276714E-10  -1.28392676574187E-24  -1.69056023818381E-08
     -3.74442324371398E-26
      1.60000000000000E-12
     -3.06288419702369E-08  -3.06288443702370E-08   0.00000000000000E+00   1.90551690180813E-08   8.92841759848119E-10
      2.62639363047628E-25   1.99480107779294E-08  -3.87088755959053E-31   0.00000000000000E+00   2.40105054183076E-15
      0.00000000000000E+00  -2.02600598470447E-08   3.03575511778958E-10  -2.34265873626017E-24  -1.99564843352658E-08
     -3.09189079266073E-26
      1.65000000000000E-12
     -3.94783361358556E-08  -3.94783386108558E-08   0.00000000000000E+00   1.81398484352695E-08  -4.01068466374942E-10
      6.68728338040948E-25   1.77387799688946E-08   2.24995339401199E-30   0.00000000000000E+00   2.47449967399472E-15
      0.00000000000000E+00  -1.73881191199486E-08  -3.50725867730768E-10  -1.08543100215341E-24  -1.77388449876794E-08
     -6.24318519353283E-27
      1.70000000000000E-12
     -4.57864686777862E-08  -4.57864712277865E-08   0.00000000000000E+00   1.47027111319720E-08  -2.87583555382921E-10
     -1.37120952595147E-26   1.44151275765891E-08  -3.48984706544333E-30   0.00000000000000E+00   2.54972157796722E-15
      0.00000000000000E+00  -1.40692074613832E-08  -3.45669128206070E-10  -3.08513902897218E-25  -1.44148765895892E-08
     -7.53090851937236E-27
      1.75000000000000E-12
     -5.09552924666746E-08  -5.09552950916746E-08   0.00000000000000E+00   1.27488332942716E-08  -2.13714169517143E-10
     -1.68764249347873E-26   1.25351191247545E-08  -4.98981599478466E-30   0.00000000000000E+00   2.62546795996397E-15
      0.00000000000000E+00  -1.23034482494092E-08  -2.31484522268165E-10   3.40231363626709E-24  -1.25349327716774E-08
     -6.93300154969911E-27
      1.80000000000000E-12
     -5.54520140145702E-08  -5.54520167145701E-08   0.00000000000000E+00   1.12944041278268E-08  -1.69990329743604E-10
      5.27388279212104E-27   1.11244137980832E-08  -1.94754030341898E-30   0.00000000000000E+00   2.69942669738639E-15
      0.00000000000000E+00  -1.09571658049077E-08  -1.67049048289654E-10   2.01528246193925E-25  -1.11242148531974E-08
     -9.73085488472389E-27
      1.85000000000000E-12
     -5.94622381610307E-08  -5.94622409360309E-08   0.00000000000000E+00   1.01281560330729E-08  -1.38741393972873E-10
      1.09696762076118E-25   9.98941463909999E-09  -7.85669209360639E-30   0.00000000000000E+00   2.77330181931932E-15
      0.00000000000000E+00  -9.85950851010891E-09  -1.29710535370149E-10  -8.16199285615633E-25  -9.98921904547906E-09
     -6.07838215568326E-27
      1.90000000000000E-12
     -6.30974304366848E-08  -6.30974332866847E-08   0.00000000000000E+00   9.16906342468807E-09  -1.15704952716890E-10
     -2.58420256813931E-26   9.05335847197118E-09  -5.77306589942056E-30   0.00000000000000E+00   2.85059976478233E-15
      0.00000000000000E+00  -8.94591735773307E-09  -1.07245511016282E-10  -2.57513808209035E-24  -9.05316286874935E-09
     -2.73420142771677E-27
      1.95000000000000E-12
     -6.64322351522051E-08  -6.64322380772056E-08   0.00000000000000E+00   8.36955214973117E-09  -9.78649169958367E-11
     -8.38547363947246E-26   8.27168723273533E-09   3.56242620718566E-30   0.00000000000000E+00   2.92551683485394E-15
      0.00000000000000E+00  -8.17879742078008E-09  -9.26946243225441E-11   3.25951501922855E-24  -8.27149204510262E-09
     -4.55349438767707E-27
      2.00000000000000E-12
     -6.95167431310577E-08  -6.95167461310573E-08   0.00000000000000E+00   7.69748924052860E-09  -8.36534744131953E-11
      1.33956622919874E-25   7.61383576611541E-09   7.46960333764734E-31   0.00000000000000E+00   3.00875786165540E-15
      0.00000000000000E+00  -7.53089166057075E-09  -8.27488124069392E-11   1.05883085582065E-24  -7.61364047297768E-09
      7.98602812419121E-27
}
