DF-ISE text

Info {
  version   = 1.0
  type      = xyplot
  datasets  = [
    "time"
    "ntype OuterVoltage" "ntype InnerVoltage" "ntype QuasiFermiPotential" "ntype DisplacementCurrent" "ntype eCurrent"
    "ntype hCurrent" "ntype TotalCurrent" "ntype Charge" "ptype OuterVoltage" "ptype InnerVoltage"
    "ptype QuasiFermiPotential" "ptype DisplacementCurrent" "ptype eCurrent" "ptype hCurrent" "ptype TotalCurrent"
    "ptype Charge" ]
  functions = [
    Time
    OuterVoltage InnerVoltage QuasiFermiPotential DisplacementCurrent eCurrent
    hCurrent TotalCurrent Charge OuterVoltage InnerVoltage
    QuasiFermiPotential DisplacementCurrent eCurrent hCurrent TotalCurrent
    Charge ]
}

Data {
      5.00000000000000E-14
     -5.06876219862590E-08  -5.06876220612588E-08   0.00000000000000E+00  -3.27505312648181E-11  -6.15900942533838E-14
      3.33802273890962E-29  -3.28121213590714E-11  -3.68641557432879E-30   0.00000000000000E+00   6.76695753528148E-14
      0.00000000000000E+00  -5.70505432763464E-10   6.03317554122532E-10   3.42675613877932E-24   3.28121213590716E-11
     -1.73694224643474E-26
      1.00000000000000E-13
     -1.17469711056415E-08  -1.17469712556415E-08   0.00000000000000E+00  -2.74944222063392E-11   1.50032421232796E-12
     -1.70240769145692E-29  -2.59940979940112E-11   9.60161562632806E-30   0.00000000000000E+00   1.52839601708130E-16
      0.00000000000000E+00  -1.15527961919869E-10   1.41522059913881E-10  -2.08423020480332E-25   2.59940979940112E-11
     -7.16068231734477E-27
      1.50000000000000E-13
     -4.52086172517854E-09  -4.52086195017851E-09   0.00000000000000E+00  -1.53405897301024E-11   2.17677595544873E-12
      2.96832947799952E-28  -1.31638137746537E-11  -3.91322539227355E-30   0.00000000000000E+00   2.24093155428316E-16
      0.00000000000000E+00  -1.87911724277136E-11   3.19549862023670E-11   9.37369575416504E-26   1.31638137746535E-11
     -4.45439966615155E-27
      2.00000000000000E-13
     -2.54822472144361E-09  -2.54822502144361E-09   0.00000000000000E+00  -9.08757962224112E-12   2.93673604240157E-12
      4.11619727809130E-29  -6.15084357983955E-12   5.14707080189303E-30   0.00000000000000E+00   2.96036249647109E-16
      0.00000000000000E+00   6.31745251014430E-13   5.51909832882522E-12  -8.71626878580893E-26   6.15084357983956E-12
     -5.11859558528279E-27
      2.50000000000000E-13
     -1.93781976574193E-09  -1.93782014074193E-09   0.00000000000000E+00  -6.35938833523171E-12   3.68060690310779E-12
     -6.60201025795914E-29  -2.67878143212392E-12  -2.02314357606724E-30   0.00000000000000E+00   3.73665035446725E-16
      0.00000000000000E+00   3.97909579954082E-12  -1.30031436741697E-12   8.72312765603144E-26   2.67878143212394E-12
     -6.79614148142033E-27
      3.00000000000000E-13
     -1.66533362184761E-09  -1.66533407184762E-09   0.00000000000000E+00  -5.45111411803979E-12   4.42643526224640E-12
     -2.05850100437098E-29  -1.02467885579338E-12   1.66327199826155E-31   0.00000000000000E+00   4.48380230110617E-16
      0.00000000000000E+00   4.50752300449721E-12  -3.48284414870387E-12  -2.94919710737157E-26   1.02467885579331E-12
     -6.60910503315037E-27
      3.50000000000000E-13
     -1.48705859474724E-09  -1.48705911974724E-09   0.00000000000000E+00  -5.41454808503633E-12   5.18298746290239E-12
      2.56186002635457E-29  -2.31560622133940E-13   1.30642455136180E-30   0.00000000000000E+00   5.23155231535222E-16
      0.00000000000000E+00   4.80340059730881E-12  -4.57183997517489E-12  -1.95207135216883E-26   2.31560622133897E-13
     -6.80148814486202E-27
      4.00000000000000E-13
     -1.33879502991481E-09  -1.33879562991481E-09   0.00000000000000E+00  -5.76357789478230E-12   5.92824771865985E-12
     -2.45040483123910E-30   1.64669823877543E-13   5.42529084523860E-30   0.00000000000000E+00   5.98406507696341E-16
      0.00000000000000E+00   5.23984546804621E-12  -5.40451529192364E-12  -7.40343346563819E-27  -1.64669823877440E-13
     -6.79311735051440E-27
      4.50000000000000E-13
     -1.20323232186854E-09  -1.20323299686854E-09   0.00000000000000E+00  -6.30263155462604E-12   6.68273847497987E-12
     -4.99375605262865E-29   3.80106920353830E-13   1.72375461638016E-30   0.00000000000000E+00   6.73698281039540E-16
      0.00000000000000E+00   5.79246554200981E-12  -6.17257246236363E-12  -6.21640747208563E-27  -3.80106920353829E-13
     -7.16774668714102E-27
      5.00000000000000E-13
     -1.07410482172090E-09  -1.07410557172090E-09   0.00000000000000E+00  -6.91921450534852E-12   7.43290501742637E-12
     -2.47816803868664E-29   5.13690512077849E-13   3.93137017770913E-30   0.00000000000000E+00   7.48387439792568E-16
      0.00000000000000E+00   6.41363155919783E-12  -6.92732207127569E-12   3.35535341820209E-26  -5.13690512077831E-13
     -7.02401579344398E-27
      5.50000000000000E-13
     -9.49084335001845E-10  -9.49085160001850E-10   0.00000000000000E+00  -7.56179209301969E-12   8.17207695718838E-12
      4.45317823805234E-29   6.10284864168688E-13   3.79830841784820E-30   0.00000000000000E+00   8.23116581400633E-16
      0.00000000000000E+00   7.06785063512560E-12  -7.67813549929429E-12   2.43849481760943E-28  -6.10284864168698E-13
     -7.48305467191692E-27
      6.00000000000000E-13
     -8.26864113550074E-10  -8.26865013550079E-10   0.00000000000000E+00  -8.23783126186742E-12   8.92799783542898E-12
     -2.13253622423107E-30   6.90166573561569E-13   1.58162046380144E-30   0.00000000000000E+00   8.98431227798806E-16
      0.00000000000000E+00   7.73791347836160E-12  -8.42808005192316E-12  -7.34425981025170E-26  -6.90166573561637E-13
     -7.08232103731031E-27
      6.50000000000000E-13
     -7.06528134985191E-10  -7.06529109985191E-10   0.00000000000000E+00  -8.91729457090614E-12   9.67993529030709E-12
      3.94941685074342E-29   7.62640719400960E-13  -3.72875340701181E-30   0.00000000000000E+00   9.73801078140488E-16
      0.00000000000000E+00   8.41627296817988E-12  -9.17891368758100E-12   6.65345749318605E-26  -7.62640719401055E-13
     -7.65712364686226E-27
      7.00000000000000E-13
     -5.87773100853869E-10  -5.87774150853866E-10   0.00000000000000E+00  -9.59256691854835E-12   1.04243779781756E-11
      2.25304463916640E-29   8.31811059627282E-13   7.49682051580071E-30   0.00000000000000E+00   1.04881732208793E-15
      0.00000000000000E+00   9.09802975530769E-12  -9.92984081493521E-12   9.87410905960192E-26  -8.31811059627416E-13
     -7.72779153787203E-27
      7.50000000000000E-13
     -4.70163618517016E-10  -4.70164743517015E-10   0.00000000000000E+00  -1.02801177539280E-11   1.11796084118824E-11
     -3.47422340153268E-29   8.99490657954426E-13   2.75195912439639E-31   0.00000000000000E+00   1.12432068237385E-15
      0.00000000000000E+00   9.78053916938796E-12  -1.06800298273427E-11   9.20905550798257E-26  -8.99490657954601E-13
     -7.81348331122247E-27
      8.00000000000000E-13
     -3.53545972665578E-10  -3.53547172665579E-10   0.00000000000000E+00  -1.09543565793034E-11   1.19209248221020E-11
     -3.10505321554551E-29   9.66568242798618E-13  -4.82953705677037E-30   0.00000000000000E+00   1.19861918062380E-15
      0.00000000000000E+00   1.04626657111839E-11  -1.14292339539828E-11  -4.96888987552347E-28  -9.66568242798842E-13
     -8.45169589760995E-27
      8.50000000000000E-13
     -2.37517460365295E-10  -2.37518735365295E-10   0.00000000000000E+00  -1.16344179360235E-11   1.26677684001904E-11
      2.00347754613256E-29   1.03335046416690E-12   4.39406220631643E-30   0.00000000000000E+00   1.27423269888284E-15
      0.00000000000000E+00   1.11459820020153E-11  -1.21793324661828E-11  -2.82407346156342E-27  -1.03335046416747E-12
     -8.06719579770638E-27
      9.00000000000000E-13
     -1.22158386932662E-10  -1.22159736932662E-10   0.00000000000000E+00  -1.23218603485995E-11   1.34218819404199E-11
     -7.11432190843126E-30   1.10002159182048E-12  -1.72375461638016E-31   0.00000000000000E+00   1.34897340134345E-15
      0.00000000000000E+00   1.18280651683963E-11  -1.29280867602175E-11   4.55444051356398E-26  -1.10002159182117E-12
     -7.98377817079720E-27
      9.50000000000000E-13
     -6.97380694356206E-12  -6.97523194356251E-12   0.00000000000000E+00  -1.30030497646009E-11   1.41697826368766E-11
     -5.12688867964610E-29   1.16673287227565E-12   7.95044015169023E-30   0.00000000000000E+00   1.42403016951881E-15
      0.00000000000000E+00   1.25121175829951E-11  -1.36788504552716E-11  -1.10575155758705E-25  -1.16673287227665E-12
     -7.79260471144792E-27
      1.00000000000000E-12
      1.07804688643572E-10   1.07803188643572E-10   0.00000000000000E+00  -1.36846872343496E-11   1.49181539653812E-11
     -2.39910325225996E-29   1.23346673103160E-12   2.64913867359477E-30   0.00000000000000E+00   1.49892633004884E-15
      0.00000000000000E+00   1.31952863649373E-11  -1.44287530959701E-11  -8.45871519372835E-26  -1.23346673103283E-12
     -7.62642266990525E-27
      1.05000000000000E-12
      2.22442540614794E-10   2.22440965614794E-10   0.00000000000000E+00  -1.43711110227851E-11   1.56713206033067E-11
      1.81869127047631E-30   1.30020958052157E-12  -3.97068387948622E-30   0.00000000000000E+00   1.57420988514909E-15
      0.00000000000000E+00   1.38785783850288E-11  -1.51787879655519E-11  -1.14780684174499E-25  -1.30020958052324E-12
     -7.60208446437433E-27
      1.10000000000000E-12
      3.36881448814479E-10   3.36879798814477E-10   0.00000000000000E+00  -1.50578390928328E-11   1.64248305094330E-11
     -1.40626681201653E-30   1.36699141660013E-12   2.09269858690363E-30   0.00000000000000E+00   1.64875576580316E-15
      0.00000000000000E+00   1.45613947920285E-11  -1.59283862086308E-11  -4.14724640196811E-26  -1.36699141660234E-12
     -7.54936781442215E-27
      1.15000000000000E-12
      4.51444544926881E-10   4.51442819926882E-10   0.00000000000000E+00  -1.57311866422516E-11   1.71650178641371E-11
      3.91677496372629E-29   1.43383122188545E-12   2.37696689206106E-30   0.00000000000000E+00   1.72379665189543E-15
      0.00000000000000E+00   1.52457322364247E-11  -1.66795634583129E-11   6.66033854379713E-26  -1.43383122188807E-12
     -7.56627875444812E-27
      1.20000000000000E-12
      5.65808429923354E-10   5.65806629923352E-10   0.00000000000000E+00  -1.64159756770351E-11   1.79165983189662E-11
      1.49961556749230E-29   1.50062264193118E-12  -3.05739634589533E-30   0.00000000000000E+00   1.79884512257152E-15
      0.00000000000000E+00   1.59277692666614E-11  -1.74283919085958E-11   4.72224948727473E-27  -1.50062264193446E-12
     -7.50020754241536E-27
      1.25000000000000E-12
      6.80335642849586E-10   6.80333767849590E-10   0.00000000000000E+00  -1.70998799370891E-11   1.86673172301148E-11
      2.66868802022879E-29   1.56743729302577E-12   3.95858735586250E-30   0.00000000000000E+00   1.87388104045668E-15
      0.00000000000000E+00   1.66109164363378E-11  -1.81783537293674E-11  -4.19413891200800E-26  -1.56743729302970E-12
     -7.34191243427535E-27
      1.30000000000000E-12
      7.95001461430231E-10   7.94999511430231E-10   0.00000000000000E+00  -1.77885748376569E-11   1.94228851073041E-11
      1.48271622382859E-30   1.63431026964717E-12  -2.04733662331468E-30   0.00000000000000E+00   1.94895755360845E-15
      0.00000000000000E+00   1.72944805762717E-11  -1.89287908459233E-11  -8.45519839504583E-26  -1.63431026965167E-12
     -7.57339151033886E-27
      1.35000000000000E-12
      9.09772206847772E-10   9.09770181847767E-10   0.00000000000000E+00  -1.84628305528095E-11   2.01640406221977E-11
      2.46517666824516E-28   1.70121006938818E-12   1.52416197658877E-30   0.00000000000000E+00   2.02357134798303E-15
      0.00000000000000E+00   1.79773798167846E-11  -1.96785898870600E-11   1.56924684731364E-25  -1.70121007027529E-12
     -7.32703371021817E-27
      1.40000000000000E-12
     -7.48621837648695E-09  -7.48622047648695E-09   0.00000000000000E+00   1.24852690332651E-08   1.09230262976105E-08
     -3.04935903040439E-24   2.34082953308755E-08  -8.34055303855521E-30   0.00000000000000E+00   2.10088237461362E-15
      0.00000000000000E+00  -2.82482023023029E-08   4.77612060657685E-09  -2.16298084570935E-23  -2.34720816957261E-08
     -2.61440955427106E-26
      1.45000000000000E-12
     -5.64004941358451E-08  -5.64004963108453E-08   0.00000000000000E+00   7.82087580858463E-08   1.18000277299549E-08
     -3.45544800539771E-24   9.00087858158012E-08  -1.20965236237204E-31   0.00000000000000E+00   2.17802204754292E-15
      0.00000000000000E+00  -9.66012951264211E-08   6.50181511248516E-09  -1.44630961691127E-23  -9.00994800139360E-08
     -5.35912769962629E-26
      1.50000000000000E-12
     -1.29306758608752E-07  -1.29306760858751E-07   0.00000000000000E+00   1.23510721304533E-07   1.00759177488026E-08
     -3.78031918539236E-24   1.33586639053336E-07   4.38801394450457E-30   0.00000000000000E+00   2.24712568919833E-15
      0.00000000000000E+00  -1.38453803523810E-07   4.78248917499992E-09  -2.01409583831103E-23  -1.33671314348810E-07
     -2.22402086666746E-26
      1.55000000000000E-12
     -2.17981940148281E-07  -2.17981942473280E-07   0.00000000000000E+00   1.59599634785158E-07   9.35289891632479E-09
     -7.27373914689334E-24   1.68952533701483E-07   2.02314357606724E-30   0.00000000000000E+00   2.32301405918309E-15
      0.00000000000000E+00  -1.72885923767612E-07   3.84799342511655E-09  -1.04401783752828E-23  -1.69037930342495E-07
     -2.98056406644691E-26
      1.60000000000000E-12
     -3.19670628374701E-07  -3.19670630774703E-07   0.00000000000000E+00   1.90747929951022E-07   8.71313669660002E-09
     -7.25686272195855E-24   1.99461066647622E-07  -3.11485483310800E-30   0.00000000000000E+00   2.39877502494309E-15
      0.00000000000000E+00  -2.02792428463550E-07   3.24662641448048E-09  -2.11514343260807E-23  -1.99545802049070E-07
      7.94690796679210E-27
      1.65000000000000E-12
     -4.09211442468030E-07  -4.09211444943029E-07   0.00000000000000E+00   1.81600388906635E-07  -4.23267963017601E-09
      4.79290468147960E-24   1.77367709276459E-07  -2.45257016470931E-30   0.00000000000000E+00   2.47479615608752E-15
      0.00000000000000E+00  -1.74078735264001E-07  -3.28962411584058E-09  -1.89237462346887E-23  -1.77368359379841E-07
      8.59470099988958E-27
      1.70000000000000E-12
     -4.73340962149517E-07  -4.73340964699516E-07   0.00000000000000E+00   1.47234713620040E-07  -3.10458519876692E-09
      1.29948471997862E-24   1.44130128421273E-07   2.03221596878503E-30   0.00000000000000E+00   2.55239724452285E-15
      0.00000000000000E+00  -1.40895303606997E-07  -3.23231495143037E-09  -1.67382492056338E-23  -1.44127618558427E-07
      1.03345439926893E-27
      1.75000000000000E-12
     -5.26084344629131E-07  -5.26084347254130E-07   0.00000000000000E+00   1.27701695277285E-07  -2.37262835969993E-09
     -1.35011399478299E-25   1.25329066917585E-07  -1.44553457303459E-30   0.00000000000000E+00   2.62615820453613E-15
      0.00000000000000E+00  -1.23243521048443E-07  -2.08368234414220E-09   1.23039685540184E-24  -1.25327203392585E-07
     -1.32090167083467E-26
      1.80000000000000E-12
     -5.72103695514886E-07  -5.72103698214889E-07   0.00000000000000E+00   1.13163268683542E-07  -1.94208696616920E-09
     -2.19393524152235E-24   1.11221181717373E-07   6.58050885130389E-30   0.00000000000000E+00   2.70071549702433E-15
      0.00000000000000E+00  -1.09786579331939E-07  -1.43261294168408E-09   9.85635955019502E-24  -1.11219192273623E-07
      4.99654166191945E-27
      1.85000000000000E-12
     -6.13263203536763E-07  -6.13263206311761E-07   0.00000000000000E+00   1.01506880271785E-07  -1.63636110684647E-09
      6.15989510119738E-25   9.98705191649389E-08  -1.13102495881786E-30   0.00000000000000E+00   2.77559719600643E-15
      0.00000000000000E+00  -9.88160577304319E-08  -1.05250550348169E-09   2.42772646569708E-23  -9.98685632339135E-08
     -1.55354443247079E-26
      1.90000000000000E-12
     -6.50682828946747E-07  -6.50682831796745E-07   0.00000000000000E+00   9.19221508821435E-08  -1.41273539425563E-09
     -6.24427722587131E-25   9.05094154878879E-08   1.00401146076879E-30   0.00000000000000E+00   2.84903361041561E-15
      0.00000000000000E+00  -8.96864082380555E-08  -8.21051222709369E-10  -2.68171666096563E-23  -9.05074594607649E-08
     -4.43151304345547E-27
      1.95000000000000E-12
     -6.85095725361063E-07  -6.85095728286066E-07   0.00000000000000E+00   8.39333226272741E-08  -1.24108420348128E-09
     -1.16447332050033E-24   8.26922384237928E-08  -8.13491213695196E-31   0.00000000000000E+00   2.92419455750417E-15
      0.00000000000000E+00  -8.20214756099462E-08  -6.68810942594766E-10   4.85866340754386E-24  -8.26902865525410E-08
     -1.00720494300545E-27
      2.00000000000000E-12
     -7.17025706001776E-07  -7.17025709001778E-07   0.00000000000000E+00   7.72190028779681E-08  -1.10570997908604E-09
     -1.43449611945692E-25   7.61132928988821E-08  -2.48885973558047E-30   0.00000000000000E+00   3.00900200234263E-15
      0.00000000000000E+00  -7.55489600024779E-08  -5.62379970111435E-10   1.23870322079943E-23  -7.61113399725893E-08
     -2.36639453041393E-27
}
