DF-ISE text

Info {
  version   = 1.0
  type      = xyplot
  datasets  = [
    "time"
    "ntype OuterVoltage" "ntype InnerVoltage" "ntype QuasiFermiPotential" "ntype DisplacementCurrent" "ntype eCurrent"
    "ntype hCurrent" "ntype TotalCurrent" "ntype Charge" "ptype OuterVoltage" "ptype InnerVoltage"
    "ptype QuasiFermiPotential" "ptype DisplacementCurrent" "ptype eCurrent" "ptype hCurrent" "ptype TotalCurrent"
    "ptype Charge" ]
  functions = [
    Time
    OuterVoltage InnerVoltage QuasiFermiPotential DisplacementCurrent eCurrent
    hCurrent TotalCurrent Charge OuterVoltage InnerVoltage
    QuasiFermiPotential DisplacementCurrent eCurrent hCurrent TotalCurrent
    Charge ]
}

Data {
      5.00000000000000E-13
      8.95634771522364E-09   8.95634696522367E-09   0.00000000000000E+00   7.19246324468050E-12   3.07773349895640E-13
      3.63738254095262E-29   7.50023659457615E-12   3.99145422417381E-14   0.00000000000000E+00  -3.23102025930405E-15
      0.00000000000000E+00   5.09315056563208E-11  -2.90889534950830E-11  -2.26312372498307E-25   2.18425521612376E-11
     -4.19979510100634E-14
      1.00000000000000E-12
      4.33813616718600E-09   4.33813466718598E-09   0.00000000000000E+00   1.46743540495988E-11   3.25492048178922E-13
      2.59123269510342E-30   1.49998460977778E-11   3.99145422472799E-14   0.00000000000000E+00   1.49954148576961E-15
      0.00000000000000E+00  -5.66286055321500E-12  -9.33698282603222E-12  -1.35161332555127E-27  -1.49998433792472E-11
     -4.19979510154633E-14
      1.50000000000000E-12
      7.79084489121189E-09   7.79084264121187E-09   0.00000000000000E+00   2.20029444586136E-11   4.96394503263656E-13
     -2.01504554923570E-29   2.24993389618773E-11   3.99145422565580E-14   0.00000000000000E+00   2.24949628695461E-15
      0.00000000000000E+00  -1.25633703509339E-14  -2.24867740978562E-11  -2.90995400382497E-26  -2.24993374682072E-11
     -4.19979510245985E-14
      2.00000000000000E-12
      1.03661737492356E-08   1.03661707492356E-08   0.00000000000000E+00   2.93369314840478E-11   6.63388546070325E-13
      2.21461875059770E-29   3.00003200301181E-11   3.99145422695123E-14   0.00000000000000E+00   2.99958454695390E-15
      0.00000000000000E+00  -1.18653225781927E-12  -2.88137682490167E-11  -1.85437307232085E-26  -3.00003005068360E-11
     -4.19979510374095E-14
      2.50000000000000E-12
      1.33767411038298E-08   1.33767373538298E-08   0.00000000000000E+00   3.66672099574492E-11   8.33120414122968E-13
     -9.65676780783882E-31   3.75003303715722E-11   3.99145422861498E-14   0.00000000000000E+00   3.74959435269418E-15
      0.00000000000000E+00  -9.42545692891427E-13  -3.65578106486824E-11  -1.60605692883976E-25  -3.75003563415740E-11
     -4.19979510539038E-14
      3.00000000000000E-12
      1.65363286397730E-08   1.65363241397731E-08   0.00000000000000E+00   4.39965780002077E-11   1.00333297845097E-12
      5.45044069687436E-29   4.49999109786587E-11   3.99145423064787E-14   0.00000000000000E+00   4.49955696586097E-15
      0.00000000000000E+00  -9.93110937661565E-13  -4.40067784815478E-11   1.67240188405106E-25  -4.49998894192092E-11
     -4.19979510740877E-14
      3.50000000000000E-12
      1.98621885164496E-08   1.98621832664497E-08   0.00000000000000E+00   5.13254671325632E-11   1.17444977784642E-12
     -6.26804703793805E-29   5.24999169104096E-11   3.99145423305037E-14   0.00000000000000E+00   5.24954540333710E-15
      0.00000000000000E+00  -9.82731888986881E-13  -5.15171847023880E-11   3.03504659897522E-25  -5.24999165913746E-11
     -4.19979510979704E-14
      4.00000000000000E-12
      2.33302985208827E-08   2.33302925208826E-08   0.00000000000000E+00   5.86540355279114E-11   1.34599714492990E-12
      7.65620741031488E-29   6.00000326728413E-11   3.99145423582272E-14   0.00000000000000E+00   5.99956488409099E-15
      0.00000000000000E+00  -9.84819583169682E-13  -5.90151734997658E-11   2.18346212287901E-26  -5.99999930829354E-11
     -4.19979511255488E-14
      4.50000000000000E-12
      2.69298586354092E-08   2.69298518854094E-08   0.00000000000000E+00   6.59820654702611E-11   1.51776687092416E-12
     -1.02683631023353E-29   6.74998323411853E-11   3.99145423896509E-14   0.00000000000000E+00   6.74955068197710E-15
      0.00000000000000E+00  -9.84261669102006E-13  -6.65155711653701E-11   1.78228731796305E-25  -6.74998328344719E-11
     -4.19979511568289E-14
      5.00000000000000E-12
      3.06515761146752E-08   3.06515686146754E-08   0.00000000000000E+00   7.33105476051444E-11   1.68961666465316E-12
      6.80641184322506E-29   7.50001642697975E-11   3.99145424247763E-14   0.00000000000000E+00   7.49958950623328E-15
      0.00000000000000E+00  -9.84422503239926E-13  -7.40157484459925E-11  -2.38245545450937E-26  -7.50001709492325E-11
     -4.19979511918107E-14
      5.50000000000000E-12
      3.44878865423451E-08   3.44878782923451E-08   0.00000000000000E+00   8.06385533592969E-11   1.86149599882880E-12
     -6.74042392987150E-29   8.25000493581257E-11   3.99145424636040E-14   0.00000000000000E+00   8.24956720050771E-15
      0.00000000000000E+00  -9.84506064271383E-13  -8.15155820196670E-11  -5.71594072986159E-25  -8.25000880839389E-11
     -4.19979512304941E-14
      6.00000000000000E-12
      3.84329329412592E-08   3.84329239412590E-08   0.00000000000000E+00   8.79664831186039E-11   2.03399716175550E-12
     -1.12823237221584E-28   9.00004802803594E-11   3.99145425061351E-14   0.00000000000000E+00   8.99961966010670E-15
      0.00000000000000E+00  -9.84630088579196E-13  -8.90158523085080E-11  -3.50107854855641E-25  -9.00004823970876E-11
     -4.19979512728814E-14
      6.50000000000000E-12
      4.24813764108692E-08   4.24813666608690E-08   0.00000000000000E+00   9.52936160679108E-11   2.20624225317017E-12
      9.05161035854759E-29   9.74998583210809E-11   3.99145425523697E-14   0.00000000000000E+00   9.74954731919579E-15
      0.00000000000000E+00  -9.84333045052994E-13  -9.65154788173995E-11  -4.37029058291343E-25  -9.74998118624529E-11
     -4.19979513189730E-14
      7.00000000000000E-12
      4.66289720488785E-08   4.66289615488788E-08   0.00000000000000E+00   1.02621408176687E-10   2.37834043627118E-12
      1.40184079343794E-28   1.04999748612958E-10   3.99145426023082E-14   0.00000000000000E+00   1.04995393352435E-14
      0.00000000000000E+00  -9.84158498329571E-13  -1.04015562128694E-10  -5.72807984732119E-26  -1.04999720627024E-10
     -4.19979513687696E-14
      7.50000000000000E-12
      5.08717932945416E-08   5.08717820445418E-08   0.00000000000000E+00   1.09949266167970E-10   2.55051075800029E-12
      1.19743920817201E-29   1.12499776925970E-10   3.99145426559508E-14   0.00000000000000E+00   1.12495489212633E-14
      0.00000000000000E+00  -9.84225921518426E-13  -1.11515546738616E-10  -3.53862085884871E-25  -1.12499772660135E-10
     -4.19979514222693E-14
      8.00000000000000E-12
      5.52064977992323E-08   5.52064857992321E-08   0.00000000000000E+00   1.17276868962346E-10   2.72308621034840E-12
     -1.92555950088306E-28   1.19999955172694E-10   3.99145427132982E-14   0.00000000000000E+00   1.19995608685643E-14
      0.00000000000000E+00  -9.84464005125951E-13  -1.19015519176407E-10  -5.65870895667787E-25  -1.19999983181534E-10
     -4.19979514794754E-14
      8.50000000000000E-12
      5.96301497332902E-08   5.96301369832901E-08   0.00000000000000E+00   1.24604594349379E-10   2.89535542641567E-12
      1.01717954242569E-28   1.27499949775794E-10   3.99145427743502E-14   0.00000000000000E+00   1.27495667659406E-14
      0.00000000000000E+00  -9.84254288951760E-13  -1.26515695096331E-10  -5.20794646758432E-25  -1.27499949385284E-10
     -4.19979515403848E-14
      9.00000000000000E-12
      6.41399329778930E-08   6.41399194778927E-08   0.00000000000000E+00   1.31932285674476E-10   3.06737674900966E-12
      1.45881572350418E-28   1.34999662423486E-10   3.99145428391067E-14   0.00000000000000E+00   1.34995370764791E-14
      0.00000000000000E+00  -9.84250485339429E-13  -1.34015407122337E-10  -2.19136517657471E-25  -1.34999657607676E-10
     -4.19979516050000E-14
      9.50000000000000E-12
      6.87336277809346E-08   6.87336135309343E-08   0.00000000000000E+00   1.39260062633780E-10   3.24000852061265E-12
     -1.32683989679705E-28   1.42500071154393E-10   3.99145429075684E-14   0.00000000000000E+00   1.42495811860652E-14
      0.00000000000000E+00  -9.84461569059325E-13  -1.41515622495868E-10  -5.47235878481001E-25  -1.42500084064928E-10
     -4.19979516733220E-14
      1.00000000000000E-11
      7.34090353455222E-08   7.34090203455219E-08   0.00000000000000E+00   1.46587886390978E-10   3.41213227225906E-12
      7.09450541615892E-29   1.50000018663237E-10   3.99145429797349E-14   0.00000000000000E+00   1.49995871926036E-14
      0.00000000000000E+00  -9.84306572459120E-13  -1.49015720568664E-10  -3.47546459288639E-26  -1.50000027141124E-10
     -4.19979517453478E-14
      1.05000000000000E-11
      7.81640869959488E-08   7.81640712459484E-08   0.00000000000000E+00   1.53915143261425E-10   3.58476665088566E-12
      9.07736173936849E-29   1.57499909912310E-10   3.99145430556060E-14   0.00000000000000E+00   1.57495608487158E-14
      0.00000000000000E+00  -9.84482001244705E-13  -1.56515450782912E-10  -6.92680916252187E-25  -1.57499932784157E-10
     -4.19979518210835E-14
      1.10000000000000E-11
      8.29972521985465E-08   8.29972356985470E-08   0.00000000000000E+00   1.61242949433186E-10   3.75684479369219E-12
      2.16311598895590E-29   1.64999794226878E-10   3.99145431351826E-14   0.00000000000000E+00   1.64995438324184E-14
      0.00000000000000E+00  -9.84228548376378E-13  -1.64015559418058E-10  -2.28900204376803E-24  -1.64999787966436E-10
     -4.19979519005226E-14
      1.15000000000000E-11
      8.79068028289115E-08   8.79067855789109E-08   0.00000000000000E+00   1.68570595150723E-10   3.92953989873341E-12
     -1.77169500047816E-28   1.72500135049457E-10   3.99145432184643E-14   0.00000000000000E+00   1.72495836790170E-14
      0.00000000000000E+00  -9.84543966616858E-13  -1.71515616705277E-10  -1.50537475746974E-24  -1.72500160671896E-10
     -4.19979519836689E-14
      1.20000000000000E-11
      9.28913141112078E-08   9.28912961112080E-08   0.00000000000000E+00   1.75897925697210E-10   4.10170510830115E-12
     -4.40348612037450E-29   1.79999630805511E-10   3.99145433054512E-14   0.00000000000000E+00   1.79995438458218E-14
      0.00000000000000E+00  -9.84108921807166E-13  -1.79015454137436E-10  -1.59772147257797E-26  -1.79999563059243E-10
     -4.19979520705189E-14
      1.25000000000000E-11
      9.79495809873291E-08   9.79495622373295E-08   0.00000000000000E+00   1.83226219090012E-10   4.27404970181313E-12
      8.16318772022642E-29   1.87500268791825E-10   3.99145433961430E-14   0.00000000000000E+00   1.87495923167622E-14
      0.00000000000000E+00  -9.84525085837630E-13  -1.86515759849432E-10  -2.84827210560612E-25  -1.87500284935270E-10
     -4.19979521610794E-14
      1.30000000000000E-11
      1.03080269376954E-07   1.03080249876954E-07   0.00000000000000E+00   1.90553698228677E-10   4.44670767198126E-12
      9.69539487907018E-29   1.95000405900659E-10   3.99145434905402E-14   0.00000000000000E+00   1.94996113628803E-14
      0.00000000000000E+00  -9.84600660767698E-13  -1.94015785688130E-10  -1.20261534825521E-24  -1.95000386348899E-10
     -4.19979522553423E-14
      1.35000000000000E-11
      1.08282333037204E-07   1.08282312787203E-07   0.00000000000000E+00   1.97880928545759E-10   4.61905324585927E-12
      3.01806183220989E-28   2.02499981791619E-10   3.99145435886426E-14   0.00000000000000E+00   2.02495588219577E-14
      0.00000000000000E+00  -9.84392037250011E-13  -2.01515587923540E-10   2.42825055629373E-27  -2.02499979960790E-10
     -4.19979523533124E-14
      1.40000000000000E-11
      1.13554787382190E-07   1.13554766382189E-07   0.00000000000000E+00   2.05208192618153E-10   4.79142043949223E-12
     -8.62671257500268E-29   2.09999613057645E-10   3.99145436904504E-14   0.00000000000000E+00   2.09995291939026E-14
      0.00000000000000E+00  -9.84181276245889E-13  -2.09015423734299E-10   1.92052004859840E-25  -2.09999605010545E-10
     -4.19979524549921E-14
      1.45000000000000E-11
      1.18896850373335E-07   1.18896828623335E-07   0.00000000000000E+00   2.12536314996625E-10   4.96365250525428E-12
     -4.27987949243417E-28   2.17499967501879E-10   3.99145437959632E-14   0.00000000000000E+00   2.17495609409405E-14
      0.00000000000000E+00  -9.84340894362714E-13  -2.16515642288941E-10  -7.79165420218903E-25  -2.17499983183305E-10
     -4.19979525603757E-14
      1.50000000000000E-11
      1.24307574001296E-07   1.24307551501296E-07   0.00000000000000E+00   2.19863801751320E-10   5.13631735180554E-12
      1.46267843062732E-28   2.25000119103125E-10   3.99145439051814E-14   0.00000000000000E+00   2.24995843041145E-14
      0.00000000000000E+00  -9.84460457855478E-13  -2.24015672100236E-10   6.69136579711209E-25  -2.25000132558091E-10
     -4.19979526694697E-14
      1.55000000000000E-11
      1.29786216365390E-07   1.29786193115390E-07   0.00000000000000E+00   2.27191400889751E-10   5.30832115115103E-12
     -1.20516462241829E-28   2.32499722040902E-10   3.99145440181046E-14   0.00000000000000E+00   2.32495331846652E-14
      0.00000000000000E+00  -9.84271010290382E-13  -2.31515473750061E-10  -2.71379396645363E-26  -2.32499744760352E-10
     -4.19979527822650E-14
      1.60000000000000E-11
      1.35332183865944E-07   1.35332159865944E-07   0.00000000000000E+00   2.34519408883773E-10   5.48079889719056E-12
      2.00088228978420E-28   2.40000207780963E-10   3.99145441347331E-14   0.00000000000000E+00   2.39995897415457E-14
      0.00000000000000E+00  -9.84597677301083E-13  -2.39015658938909E-10  -3.50577873417948E-25  -2.40000256616211E-10
     -4.19979528987713E-14
      1.65000000000000E-11
      1.40944805171496E-07   1.40944780421496E-07   0.00000000000000E+00   2.41846934120684E-10   5.65340808024181E-12
      1.15108672269439E-28   2.47500342200925E-10   3.99145442550669E-14   0.00000000000000E+00   2.47495942504556E-14
      0.00000000000000E+00  -9.84586169909844E-13  -2.46515745823988E-10   5.98149340429278E-25  -2.47500331993897E-10
     -4.19979530189817E-14
      1.70000000000000E-11
      1.46623495886638E-07   1.46623470386637E-07   0.00000000000000E+00   2.49174435412608E-10   5.82561307030319E-12
     -2.69101929578442E-28   2.55000048482911E-10   3.99145443791061E-14   0.00000000000000E+00   2.54995755294431E-14
      0.00000000000000E+00  -9.84398959352204E-13  -2.54015665375878E-10   7.78786675670246E-25  -2.55000064335230E-10
     -4.19979531429001E-14
      1.75000000000000E-11
      1.52367708677084E-07   1.52367682427085E-07   0.00000000000000E+00   2.56501969977761E-10   5.99799450550458E-12
      2.34337565470222E-28   2.62499964483266E-10   3.99145445068505E-14   0.00000000000000E+00   2.62495646911949E-14
      0.00000000000000E+00  -9.84521703291966E-13  -2.61515483472231E-10   1.65288813036488E-24  -2.62500005175521E-10
     -4.19979532705251E-14
      1.80000000000000E-11
      1.58177096335426E-07   1.58177069335427E-07   0.00000000000000E+00   2.63829322304471E-10   6.17070313747137E-12
      6.43784520522588E-29   2.70000025441942E-10   3.99145446383001E-14   0.00000000000000E+00   2.69995705411680E-14
      0.00000000000000E+00  -9.84395062135086E-13  -2.69015642330524E-10   1.22597662177722E-24  -2.70000037392658E-10
     -4.19979534018592E-14
      1.85000000000000E-11
      1.64051133496367E-07   1.64051105746366E-07   0.00000000000000E+00   2.71156825465674E-10   6.34292921497005E-12
      5.38203859156884E-29   2.77499754680644E-10   3.99145447734548E-14   0.00000000000000E+00   2.77495355338456E-14
      0.00000000000000E+00  -9.84234024676529E-13  -2.76515493898402E-10   1.49100136044113E-24  -2.77499727923077E-10
     -4.19979535368964E-14
      1.90000000000000E-11
      1.69989493975748E-07   1.69989465475749E-07   0.00000000000000E+00   2.78484706670519E-10   6.51540762156773E-12
      1.01975468050778E-28   2.85000114292087E-10   3.99145449123150E-14   0.00000000000000E+00   2.84995695786339E-14
      0.00000000000000E+00  -9.84454205560937E-13  -2.84015678522334E-10  -8.79791024505690E-25  -2.85000132727896E-10
     -4.19979536756454E-14
      1.95000000000000E-11
      1.75991764130704E-07   1.75991734880705E-07   0.00000000000000E+00   2.85812362371934E-10   6.68770746329664E-12
     -1.57598450623930E-28   2.92500069835231E-10   3.99145450548806E-14   0.00000000000000E+00   2.92495820849928E-14
      0.00000000000000E+00  -9.84358462705950E-13  -2.91515696518830E-10   8.51092462741177E-25  -2.92500054981535E-10
     -4.19979538180972E-14
      2.00000000000000E-11
      1.82057541246239E-07   1.82057511246240E-07   0.00000000000000E+00   2.93139504263156E-10   6.86026675158318E-12
      1.22061545091083E-28   2.99999771014739E-10   3.99145452011513E-14   0.00000000000000E+00   2.99995271471112E-14
      0.00000000000000E+00  -9.84399866686155E-13  -2.99015404923915E-10   1.22945340951857E-24  -2.99999804790600E-10
     -4.19979539642584E-14
      2.05000000000000E-11
      1.88186760698701E-07   1.88186729948702E-07   0.00000000000000E+00   3.00467370331783E-10   7.03247915498310E-12
      4.06356789353858E-28   3.07499849486766E-10   3.99145453511272E-14   0.00000000000000E+00   3.07495571389786E-14
      0.00000000000000E+00  -9.84268186426008E-13  -3.06515593537034E-10   8.73254560809435E-25  -3.07499861723459E-10
     -4.19979541141242E-14
      2.10000000000000E-11
      1.94378950008551E-07   1.94378918508552E-07   0.00000000000000E+00   3.07795339014034E-10   7.20474094026153E-12
     -2.59058891058289E-28   3.15000079954296E-10   3.99145455048085E-14   0.00000000000000E+00   3.14995719761910E-14
      0.00000000000000E+00  -9.84455795834897E-13  -3.14015584534246E-10   3.19166182606098E-25  -3.15000040330081E-10
     -4.19979542676961E-14
      2.15000000000000E-11
      2.00633961770620E-07   2.00633929520621E-07   0.00000000000000E+00   3.15123102135917E-10   7.37731395677849E-12
      4.88246180364331E-28   3.22500416092696E-10   3.99145456621950E-14   0.00000000000000E+00   3.22496073561828E-14
      0.00000000000000E+00  -9.84612611628653E-13  -3.21515779795927E-10  -3.93429668265424E-25  -3.22500392407556E-10
     -4.19979544249782E-14
      2.20000000000000E-11
      2.06951430537708E-07   2.06951397537708E-07   0.00000000000000E+00   3.22450233966670E-10   7.54959173702093E-12
     -3.53308944862796E-28   3.29999825703691E-10   3.99145458232867E-14   0.00000000000000E+00   3.29995471204675E-14
      0.00000000000000E+00  -9.84370071829831E-13  -3.29015473170064E-10   1.39064749637410E-24  -3.29999843241892E-10
     -4.19979545859660E-14
      2.25000000000000E-11
      2.13331352468297E-07   2.13331318718297E-07   0.00000000000000E+00   3.29777999184454E-10   7.72201747795414E-12
     -2.64209167222470E-28   3.37500016662409E-10   3.99145459880836E-14   0.00000000000000E+00   3.37495742936619E-14
      0.00000000000000E+00  -9.84446110757525E-13  -3.36515608553767E-10  -2.24455111845298E-24  -3.37500054664527E-10
     -4.19979547506603E-14
      2.30000000000000E-11
      2.19773472235287E-07   2.19773437735288E-07   0.00000000000000E+00   3.37105803212421E-10   7.89461975348948E-12
     -5.52624632416590E-28   3.45000422965911E-10   3.99145461565859E-14   0.00000000000000E+00   3.44996049725606E-14
      0.00000000000000E+00  -9.84605161230398E-13  -3.44015810806931E-10   1.69542806757972E-24  -3.45000415968160E-10
     -4.19979549190630E-14
      2.35000000000000E-11
      2.26277482697975E-07   2.26277447447975E-07   0.00000000000000E+00   3.44433097058106E-10   8.06687980284978E-12
      9.01298328731623E-29   3.52499976860956E-10   3.99145463287936E-14   0.00000000000000E+00   3.52495594108327E-14
      0.00000000000000E+00  -9.84453265046552E-13  -3.51515494573314E-10  -3.24703060798177E-24  -3.52499947838363E-10
     -4.19979550911708E-14
      2.40000000000000E-11
      2.32843368025525E-07   2.32843332025524E-07   0.00000000000000E+00   3.51760436240981E-10   8.23948483449532E-12
      3.27042536425475E-28   3.59999921075477E-10   3.99145465047063E-14   0.00000000000000E+00   3.59995553826814E-14
      0.00000000000000E+00  -9.84400414938454E-13  -3.59015519888268E-10   1.84710070668811E-24  -3.59999920303205E-10
     -4.19979552669870E-14
      2.45000000000000E-11
      2.39470970744499E-07   2.39470933994500E-07   0.00000000000000E+00   3.59088045221247E-10   8.41174037267913E-12
      2.49788393962764E-28   3.67499785593926E-10   3.99145466843245E-14   0.00000000000000E+00   3.67495407897033E-14
      0.00000000000000E+00  -9.84325925846713E-13  -3.66515495413908E-10  -1.74131948953369E-25  -3.67499821339754E-10
     -4.19979554465079E-14
      2.50000000000000E-11
      2.46160221163910E-07   2.46160183663911E-07   0.00000000000000E+00   3.66416191800804E-10   8.58416223907071E-12
      8.19408937721150E-28   3.75000354039874E-10   3.99145468676477E-14   0.00000000000000E+00   3.74996079559979E-14
      0.00000000000000E+00  -9.84510810156489E-13  -3.74015855589806E-10  -1.75911723687870E-24  -3.75000366399964E-10
     -4.19979556297374E-14
      2.55000000000000E-11
      2.52910785374208E-07   2.52910747124208E-07   0.00000000000000E+00   3.73743583270412E-10   8.75660295321730E-12
      3.54854027712051E-28   3.82500186223629E-10   3.99145470546765E-14   0.00000000000000E+00   3.82495743506553E-14
      0.00000000000000E+00  -9.84582815113276E-13  -3.81515581842110E-10   4.38996468322817E-24  -3.82500164657219E-10
     -4.19979558166733E-14
      2.60000000000000E-11
      2.59722750343440E-07   2.59722711343442E-07   0.00000000000000E+00   3.81071228655168E-10   8.92889634986912E-12
     -2.58543863441871E-28   3.90000125005037E-10   3.99145472454105E-14   0.00000000000000E+00   3.89995776954641E-14
      0.00000000000000E+00  -9.84513151671679E-13  -3.89015606749192E-10   1.05183729908014E-24  -3.90000119900862E-10
     -4.19979560073162E-14
      2.65000000000000E-11
      2.66595971374805E-07   2.66595931624805E-07   0.00000000000000E+00   3.88398751874387E-10   9.10170852351112E-12
     -4.69705186173280E-28   3.97500460397898E-10   3.99145474398496E-14   0.00000000000000E+00   3.97495992924442E-14
      0.00000000000000E+00  -9.84748168426527E-13  -3.96515694465139E-10  -1.87466337905718E-24  -3.97500442633567E-10
     -4.19979562016669E-14
      2.70000000000000E-11
      2.73530289210435E-07   2.73530248710434E-07   0.00000000000000E+00   3.95725877191640E-10   9.27392443069922E-12
      3.96056237025496E-28   4.04999801622339E-10   3.99145476379939E-14   0.00000000000000E+00   4.04995373046078E-14
      0.00000000000000E+00  -9.84293301917073E-13  -4.04015472290597E-10  -2.03550963595863E-24  -4.04999765592516E-10
     -4.19979563997217E-14
      2.75000000000000E-11
      2.80525749492449E-07   2.80525708242448E-07   0.00000000000000E+00   4.03053639097850E-10   9.44653436359814E-12
      9.37350261880888E-29   4.12500173461448E-10   3.99145478398435E-14   0.00000000000000E+00   4.12495805783867E-14
      0.00000000000000E+00  -9.84426761547505E-13  -4.11515724001545E-10   3.71220437583888E-26  -4.12500150763093E-10
     -4.19979566014851E-14
      2.80000000000000E-11
      2.87582153511471E-07   2.87582111511472E-07   0.00000000000000E+00   4.10381032688033E-10   9.61888506072103E-12
     -6.84986729836034E-28   4.19999917748754E-10   3.99145480453988E-14   0.00000000000000E+00   4.19995428956497E-14
      0.00000000000000E+00  -9.84384448020445E-13  -4.19015520468998E-10  -1.17931907188759E-24  -4.19999904917020E-10
     -4.19979568069542E-14
      2.85000000000000E-11
      2.94699514176396E-07   2.94699471426399E-07   0.00000000000000E+00   4.17708949798428E-10   9.79110621341370E-12
     -3.29102646891147E-28   4.27500056011842E-10   3.99145482546591E-14   0.00000000000000E+00   4.27495641320229E-14
      0.00000000000000E+00  -9.84403491930606E-13  -4.26515622725171E-10  -2.29812438229075E-24  -4.27500026217104E-10
     -4.19979570161314E-14
      2.90000000000000E-11
      3.01877755773921E-07   3.01877712273920E-07   0.00000000000000E+00   4.25036861083527E-10   9.96356971902376E-12
     -1.62233699171692E-28   4.35000430802551E-10   3.99145484676247E-14   0.00000000000000E+00   4.34996049949929E-14
      0.00000000000000E+00  -9.84569566422030E-13  -4.34015828193003E-10  -3.14246623807725E-24  -4.35000397759429E-10
     -4.19979572290117E-14
      2.95000000000000E-11
      3.09116692547896E-07   3.09116648297897E-07   0.00000000000000E+00   4.32364166349637E-10   1.01359643483911E-11
      6.82411591753944E-28   4.42500130698028E-10   3.99145486842952E-14   0.00000000000000E+00   4.42495604349135E-14
      0.00000000000000E+00  -9.84693858126805E-13  -4.41515462889886E-10  -1.79482529668346E-24  -4.42500156748014E-10
     -4.19979574456044E-14
      3.00000000000000E-11
      3.16416467332161E-07   3.16416422332162E-07   0.00000000000000E+00   4.39691365930348E-10   1.03086699035332E-11
      5.40263969622556E-28   4.50000035833882E-10   3.99145489046714E-14   0.00000000000000E+00   4.49995673958941E-14
      0.00000000000000E+00  -9.84431249060113E-13  -4.49015579858200E-10   2.80801327142543E-24  -4.50000011107258E-10
     -4.19979576658981E-14
      3.05000000000000E-11
      3.23776959770094E-07   3.23776914020095E-07   0.00000000000000E+00   4.47018795551688E-10   1.04810934411683E-11
     -2.21461875059770E-28   4.57499888992856E-10   3.99145491287525E-14   0.00000000000000E+00   4.57495436777101E-14
      0.00000000000000E+00  -9.84369308116923E-13  -4.56515510272003E-10  -2.05578342786743E-24  -4.57499879580122E-10
     -4.19979578899021E-14
      3.10000000000000E-11
      3.31198120713388E-07   3.31198074213389E-07   0.00000000000000E+00   4.54346629515994E-10   1.06532599008864E-11
      1.69959113417963E-28   4.64999889416880E-10   3.99145493565389E-14   0.00000000000000E+00   4.64995508678222E-14
      0.00000000000000E+00  -9.84311899931902E-13  -4.64015591692446E-10   2.16546142865729E-24  -4.64999903592376E-10
     -4.19979581176090E-14
      3.15000000000000E-11
      3.38679906693208E-07   3.38679859443210E-07   0.00000000000000E+00   4.61674570452695E-10   1.08257946299355E-11
      1.25666738406009E-28   4.72500365082630E-10   3.99145495880310E-14   0.00000000000000E+00   4.72495991503332E-14
      0.00000000000000E+00  -9.84564361297506E-13  -4.71515769726936E-10   9.55873615578419E-25  -4.72500334088233E-10
     -4.19979583490254E-14
      3.20000000000000E-11
      3.46222195297417E-07   3.46222147297416E-07   0.00000000000000E+00   4.69001454966759E-10   1.09984080871649E-11
     -3.61549386725486E-28   4.79999863053924E-10   3.99145498232279E-14   0.00000000000000E+00   4.79995530089446E-14
      0.00000000000000E+00  -9.84394927360227E-13  -4.79015455097876E-10  -2.82073504918193E-24  -4.79999850025239E-10
     -4.19979585841484E-14
      3.25000000000000E-11
      3.53825146976959E-07   3.53825098226958E-07   0.00000000000000E+00   4.76329234725689E-10   1.11706111421230E-11
      1.41117566898551E-28   4.87499845867812E-10   3.99145500621303E-14   0.00000000000000E+00   4.87495495472867E-14
      0.00000000000000E+00  -9.84178443011554E-13  -4.86515633673214E-10   1.51683203860482E-24  -4.87499812116224E-10
     -4.19979588229782E-14
      3.30000000000000E-11
      3.61488562816833E-07   3.61488513316835E-07   0.00000000000000E+00   4.83657063848737E-10   1.13430313107038E-11
     -3.23437343110548E-28   4.95000095159441E-10   3.99145503047379E-14   0.00000000000000E+00   4.94995608639949E-14
      0.00000000000000E+00  -9.84563762164845E-13  -4.94015508730674E-10   4.24582665857737E-25  -4.95000072492838E-10
     -4.19979590655110E-14
      3.35000000000000E-11
      3.69212506411272E-07   3.69212456161271E-07   0.00000000000000E+00   4.90984348383028E-10   1.15157522758473E-11
     -5.12967505952398E-28   5.02500100658875E-10   3.99145505510506E-14   0.00000000000000E+00   5.02495736266770E-14
      0.00000000000000E+00  -9.84515425607925E-13  -5.01515610140331E-10  -1.54540161610644E-24  -5.02500125565940E-10
     -4.19979593117544E-14
      3.40000000000000E-11
      3.76996863868691E-07   3.76996812868691E-07   0.00000000000000E+00   4.98311298044771E-10   1.16882049660853E-11
      9.37350261880888E-29   5.09999503010857E-10   3.99145508010688E-14   0.00000000000000E+00   5.09995121017480E-14
      0.00000000000000E+00  -9.84162833372051E-13  -5.09015333415060E-10   3.57807788128444E-24  -5.09999496248429E-10
     -4.19979595617029E-14
      3.45000000000000E-11
      3.84841790441940E-07   3.84841738691942E-07   0.00000000000000E+00   5.05639413490079E-10   1.18604448830005E-11
     -3.57429165794141E-28   5.17499858373079E-10   3.99145510547921E-14   0.00000000000000E+00   5.17495462439061E-14
      0.00000000000000E+00  -9.84235726493903E-13  -5.16515634552038E-10   5.01639804113668E-24  -5.17499870278527E-10
     -4.19979598153567E-14
      3.50000000000000E-11
      3.92747086013061E-07   3.92747033513063E-07   0.00000000000000E+00   5.12967206528919E-10   1.20329283351766E-11
      1.89530162841850E-28   5.25000134864096E-10   3.99145513122208E-14   0.00000000000000E+00   5.24995770521785E-14
      0.00000000000000E+00  -9.84512482899394E-13  -5.24015663704914E-10   1.41142286737532E-24  -5.25000176187812E-10
     -4.19979600727178E-14
      3.55000000000000E-11
      4.00712789314230E-07   4.00712736064231E-07   0.00000000000000E+00   5.20294986050522E-10   1.22051615666223E-11
      4.71765296638953E-28   5.32500147617145E-10   3.99145515733547E-14   0.00000000000000E+00   5.32495713100038E-14
      0.00000000000000E+00  -9.84514744757251E-13  -5.31515656686156E-10  -5.10807610371554E-25  -5.32500171430914E-10
     -4.19979603337842E-14
      3.60000000000000E-11