DF-ISE text

Info {
  version   = 1.0
  type      = xyplot
  datasets  = [
    "time"
    "ntype OuterVoltage" "ntype InnerVoltage" "ntype QuasiFermiPotential" "ntype DisplacementCurrent" "ntype eCurrent"
    "ntype hCurrent" "ntype TotalCurrent" "ntype Charge" "ptype OuterVoltage" "ptype InnerVoltage"
    "ptype QuasiFermiPotential" "ptype DisplacementCurrent" "ptype eCurrent" "ptype hCurrent" "ptype TotalCurrent"
    "ptype Charge" ]
  functions = [
    Time
    OuterVoltage InnerVoltage QuasiFermiPotential DisplacementCurrent eCurrent
    hCurrent TotalCurrent Charge OuterVoltage InnerVoltage
    QuasiFermiPotential DisplacementCurrent eCurrent hCurrent TotalCurrent
    Charge ]
}

Data {
      5.00000000000000E-13
      1.72477944382058E-09   1.72477869382059E-09   0.00000000000000E+00   6.32036813151914E-12   1.17945666282985E-12
     -1.53131441077819E-30   7.49982479434899E-12   3.58771115151046E-14   0.00000000000000E+00   7.43040745168027E-16
      0.00000000000000E+00  -1.11961411994899E-12  -6.34632283722141E-12   6.93741318910445E-27  -7.46593695717040E-12
     -3.74867594400748E-14
      1.00000000000000E-12
      4.38521697889367E-09   4.38521547889368E-09   0.00000000000000E+00   1.25011351445916E-11   2.49909171216597E-12
      2.29076324493666E-30   1.50002268567576E-11   3.58771115206812E-14   0.00000000000000E+00   1.49957301222173E-15
      0.00000000000000E+00  -9.49838814937010E-13  -1.40504049432742E-11   3.52440338980715E-27  -1.50002437582112E-11
     -3.74867594456495E-14
      1.50000000000000E-12
      7.29375623711790E-09   7.29375398711787E-09   0.00000000000000E+00   1.87023553554400E-11   3.79766578009156E-12
      2.75620247848733E-30   2.25000211355315E-11   3.58771115299515E-14   0.00000000000000E+00   2.24955118218103E-15
      0.00000000000000E+00  -9.92127372802977E-13  -2.15079084553663E-11  -5.54960463931788E-26  -2.25000358281693E-11
     -3.74867594549206E-14
      2.00000000000000E-12
      1.04666060245675E-08   1.04666030245676E-08   0.00000000000000E+00   2.49006413488690E-11   5.09946241606928E-12
      5.21465461623296E-30   3.00001037649382E-11   3.58771115429111E-14   0.00000000000000E+00   2.99957418043762E-15
      0.00000000000000E+00  -9.83299677937849E-13  -2.90168505815757E-11  -1.33446628952517E-25  -3.00001502595137E-11
     -3.74867594678812E-14
      2.50000000000000E-12
      1.38551212943319E-08   1.38551175443318E-08   0.00000000000000E+00   3.10995948390270E-11   6.40073045802905E-12
     -1.56922476877381E-30   3.75003252970560E-11   3.58771115595593E-14   0.00000000000000E+00   3.74958836644698E-15
      0.00000000000000E+00  -9.85302766653663E-13  -3.65150528292409E-11  -1.07959413011280E-25  -3.75003555958947E-11
     -3.74867594845315E-14
      3.00000000000000E-12
      1.74380952555826E-08   1.74380907555827E-08   0.00000000000000E+00   3.72989637496484E-11   7.70078610801822E-12
     -2.09229969169841E-31   4.49997498576667E-11   3.58771115798963E-14   0.00000000000000E+00   4.49954417893885E-15
      0.00000000000000E+00  -9.84427584147879E-13  -4.40153126116934E-11  -2.27390760328782E-25  -4.49997401958415E-11
     -3.74867595048681E-14
      3.50000000000000E-12
      2.11979285558264E-08   2.11979233058266E-08   0.00000000000000E+00   4.34988744876031E-11   9.00099054292666E-12
      3.25111182863907E-30   5.24998650305298E-11   3.58771116039227E-14   0.00000000000000E+00   5.24955947278073E-15
      0.00000000000000E+00  -9.84633577965447E-13  -5.15152467838626E-11   1.49121079925765E-25  -5.24998803618279E-11
     -3.74867595288937E-14
      4.00000000000000E-12
      2.51215047985365E-08   2.51214987985364E-08   0.00000000000000E+00   4.96990972098706E-11   1.03010399155304E-11
     -2.40614464545317E-30   6.00001371254010E-11   3.58771116316386E-14   0.00000000000000E+00   5.99957790446886E-15
      0.00000000000000E+00  -9.84740172699930E-13  -5.90154361988993E-11  -8.03550915802107E-26  -6.00001763715993E-11
     -3.74867595566090E-14
      4.50000000000000E-12
      2.91980199341771E-08   2.91980131841773E-08   0.00000000000000E+00   5.58993152673532E-11   1.16003261018779E-11
      1.37126102871311E-29   6.74996413692311E-11   3.58771116630437E-14   0.00000000000000E+00   6.74952561736366E-15
      0.00000000000000E+00  -9.84642377071233E-13  -6.65150649885374E-11  -1.41546327323573E-25  -6.74997073656088E-11
     -3.74867595880134E-14
      5.00000000000000E-12
      3.34190451105031E-08   3.34190376105032E-08   0.00000000000000E+00   6.20997889003109E-11   1.29002518550275E-11
     -7.24257585587912E-31   7.50000407553384E-11   3.58771116981384E-14   0.00000000000000E+00   7.49957042574052E-15
      0.00000000000000E+00  -9.84684324079581E-13  -7.40153541101442E-11   5.84129322500741E-25  -7.50000384342232E-11
     -3.74867596231088E-14
      5.50000000000000E-12
      3.77772094324665E-08   3.77772011824665E-08   0.00000000000000E+00   6.83003755170111E-11   1.41995689881843E-11
     -6.72754823946105E-30   8.24999445051953E-11   3.58771117369227E-14   0.00000000000000E+00   8.24956503663914E-15
      0.00000000000000E+00  -9.84616312083398E-13  -8.15153212979714E-11  -2.58275147583698E-25  -8.24999376100551E-11
     -3.74867596618913E-14
      6.00000000000000E-12
      4.22664796983671E-08   4.22664706983672E-08   0.00000000000000E+00   7.45011119856898E-11   1.54992940449537E-11
     -1.45495301638105E-29   9.00004060306435E-11   3.58771117793964E-14   0.00000000000000E+00   8.99962132998238E-15
      0.00000000000000E+00  -9.84774773609983E-13  -8.90156205538674E-11   2.16955640917518E-25  -9.00003953274771E-11
     -3.74867597043660E-14
      6.50000000000000E-12
      4.68814747224694E-08   4.68814649724695E-08   0.00000000000000E+00   8.07008568640804E-11   1.67991546514778E-11
      2.06654831087751E-29   9.75000115155582E-11   3.58771118255599E-14   0.00000000000000E+00   9.74957572779014E-15
      0.00000000000000E+00  -9.84775640268711E-13  -9.65152494160364E-11  -4.16617298065613E-25  -9.75000250563056E-11
     -3.74867597505297E-14
      7.00000000000000E-12
      5.16179598809198E-08   5.16179493809196E-08   0.00000000000000E+00   8.69016247971085E-11   1.80983662931844E-11
      1.13306075611976E-29   1.04999991090293E-10   3.58771118754128E-14   0.00000000000000E+00   1.04995553472044E-14
      0.00000000000000E+00  -9.84653258428561E-13  -1.04015362831148E-10   4.22579129011775E-25  -1.05000016089576E-10
     -3.74867598003821E-14
      7.50000000000000E-12
      5.64718732349985E-08   5.64718619849986E-08   0.00000000000000E+00   9.31018054305491E-11   1.93981811078237E-11
     -1.35194749309744E-29   1.12499986538373E-10   3.58771119289552E-14   0.00000000000000E+00   1.12495626395076E-14
      0.00000000000000E+00  -9.84768701986651E-13  -1.11515208553745E-10   3.30500174473008E-25  -1.12499977255731E-10
     -3.74867598539273E-14
      8.00000000000000E-12
      6.14400803132718E-08   6.14400683132723E-08   0.00000000000000E+00   9.93020601068728E-11   2.06979757204484E-11
      2.59445161770603E-29   1.20000035827321E-10   3.58771119861875E-14   0.00000000000000E+00   1.19995593935577E-14
      0.00000000000000E+00  -9.84714597332868E-13  -1.19015331490939E-10  -1.86758542024630E-25  -1.20000046088272E-10
     -3.74867599111585E-14
      8.50000000000000E-12
      6.65195793501445E-08   6.65195666001449E-08   0.00000000000000E+00   1.05502403278830E-10   2.19976126535539E-11
      1.41632594514969E-30   1.27500015932384E-10   3.58771120471093E-14   0.00000000000000E+00   1.27495681885737E-14
      0.00000000000000E+00  -9.84577392392651E-13  -1.26515424560240E-10   2.35917928099040E-25  -1.27500001952633E-10
     -3.74867599720789E-14
      9.00000000000000E-12
      7.17078220241504E-08   7.17078085241499E-08   0.00000000000000E+00   1.11702601187183E-10   2.32972292035387E-11
      4.89276235597167E-30   1.34999830390722E-10   3.58771121117208E-14   0.00000000000000E+00   1.34995460154186E-14
      0.00000000000000E+00  -9.84549269828615E-13  -1.34015268931016E-10   1.99326244796731E-25  -1.34999818200844E-10
     -3.74867600366896E-14
      9.50000000000000E-12
      7.70026523117755E-08   7.70026380617751E-08   0.00000000000000E+00   1.17903096163015E-10   2.45964299734083E-11
      1.30044473145563E-29   1.42499526136424E-10   3.58771121800218E-14   0.00000000000000E+00   1.42495180098824E-14
      0.00000000000000E+00  -9.84489253380155E-13  -1.41515068304747E-10   1.35584367552433E-25  -1.42499557558127E-10
     -3.74867601049914E-14
      1.00000000000000E-11
      8.24022783051597E-08   8.24022633051594E-08   0.00000000000000E+00   1.24103891414837E-10   2.58962270012163E-11
      1.62233699171692E-29   1.50000118416053E-10   3.58771122520124E-14   0.00000000000000E+00   1.49995766940664E-14
      0.00000000000000E+00  -9.84803209549889E-13  -1.49015335212401E-10   6.52594325233802E-25  -1.50000138421950E-10
     -3.74867601769824E-14
      1.05000000000000E-11
      8.79048827448328E-08   8.79048669948333E-08   0.00000000000000E+00   1.30303894076185E-10   2.71961298532044E-11
      3.61806900533695E-29   1.57500023929389E-10   3.58771123276925E-14   0.00000000000000E+00   1.57495562531125E-14
      0.00000000000000E+00  -9.84836894121743E-13  -1.56515161892047E-10   2.56789678829444E-25  -1.57499998786168E-10
     -3.74867602526601E-14
      1.10000000000000E-11
      9.35091675696089E-08   9.35091510696093E-08   0.00000000000000E+00   1.36504172114120E-10   2.84957320738930E-11
     -4.24897783544908E-30   1.64999904188013E-10   3.58771124070623E-14   0.00000000000000E+00   1.64995571261330E-14
      0.00000000000000E+00  -9.84659884541533E-13  -1.64015312308780E-10  -7.04390395249405E-25  -1.64999972193323E-10
     -3.74867603320315E-14
      1.15000000000000E-11
      9.92137521781423E-08   9.92137349281421E-08   0.00000000000000E+00   1.42704547383232E-10   2.97953734038808E-11
      4.37773473955360E-30   1.72499920787113E-10   3.58771124901216E-14   0.00000000000000E+00   1.72495606106535E-14
      0.00000000000000E+00  -9.84667493135481E-13  -1.71515265699326E-10   3.61433505423749E-25  -1.72499933192461E-10
     -3.74867604150913E-14
      1.20000000000000E-11
      1.05017609204751E-07   1.05017591204752E-07   0.00000000000000E+00   1.48904960207192E-10   3.10950253617798E-11
     -2.53651101085900E-29   1.79999985568972E-10   3.58771125768709E-14   0.00000000000000E+00   1.79995688991629E-14
      0.00000000000000E+00  -9.84704113924061E-13  -1.79015285859542E-10  -3.11111702523882E-25  -1.79999989973467E-10
     -3.74867605018428E-14
      1.25000000000000E-11
      1.10919760647874E-07   1.10919741897874E-07   0.00000000000000E+00   1.55105294086480E-10   3.23949357776512E-11
     -7.21038662985299E-30   1.87500229864131E-10   3.58771126673094E-14   0.00000000000000E+00   1.87495749904099E-14
      0.00000000000000E+00  -9.84911290323447E-13  -1.86515305014098E-10  -4.54182256309576E-26  -1.87500216304422E-10
     -3.74867605922785E-14
      1.30000000000000E-11
      1.16919430550718E-07   1.16919411050719E-07   0.00000000000000E+00   1.61305539936811E-10   3.36947561278935E-11
      5.40778997238974E-30   1.95000296064705E-10   3.58771127614378E-14   0.00000000000000E+00   1.94996040223490E-14
      0.00000000000000E+00  -9.84763480744769E-13  -1.94015538500549E-10   3.40333339129939E-25  -1.95000301981293E-10
     -3.74867606864055E-14
      1.35000000000000E-11
      1.23015650326977E-07   1.23015630076977E-07   0.00000000000000E+00   1.67505018399009E-10   3.49947113158217E-11
     -2.44638117798584E-29   2.02499729714830E-10   3.58771128592553E-14   0.00000000000000E+00   2.02495351383401E-14
      0.00000000000000E+00  -9.84702274452912E-13  -2.01515058305876E-10   7.40341888509540E-26  -2.02499760580328E-10
     -3.74867607842230E-14
      1.40000000000000E-11
      1.29208085181677E-07   1.29208064181676E-07   0.00000000000000E+00   1.73705418175665E-10   3.62940310413095E-11
     -2.70389498619487E-29   2.09999449216975E-10   3.58771129607629E-14   0.00000000000000E+00   2.09995154303934E-14
      0.00000000000000E+00  -9.84371970754735E-13  -2.09015094179946E-10   7.12688005298896E-25  -2.09999466150700E-10
     -3.74867608857286E-14
      1.45000000000000E-11
      1.35496107877609E-07   1.35496086127609E-07   0.00000000000000E+00   1.79906179190256E-10   3.75940917460281E-11
      2.29187289306041E-29   2.17500270936284E-10   3.58771130659599E-14   0.00000000000000E+00   2.17495848496456E-14
      0.00000000000000E+00  -9.84782386530944E-13  -2.16515465165144E-10  -4.98163551761266E-25  -2.17500247551676E-10
     -3.74867609909240E-14
      1.50000000000000E-11
      1.41879109522723E-07   1.41879087022723E-07   0.00000000000000E+00   1.86106160242706E-10   3.88938734088214E-11
      7.98292805448009E-30   2.25000033651528E-10   3.58771131748466E-14   0.00000000000000E+00   2.24995737081366E-14
      0.00000000000000E+00  -9.84671001789859E-13  -2.24015343135897E-10   9.91397257190503E-26  -2.25000014137686E-10
     -3.74867610998144E-14
      1.55000000000000E-11
      1.48356704613288E-07   1.48356681363288E-07   0.00000000000000E+00   1.92306559078885E-10   4.01933415277159E-11
      1.54508284925421E-29   2.32499900606600E-10   3.58771132874226E-14   0.00000000000000E+00   2.32495580538322E-14
      0.00000000000000E+00  -9.84666798817555E-13  -2.31515220179570E-10   2.97503643560850E-25  -2.32499886978387E-10
     -3.74867612123874E-14
      1.60000000000000E-11
      1.54928582200695E-07   1.54928558200695E-07   0.00000000000000E+00   1.98506714540476E-10   4.14933178456053E-11
     -2.47213255880674E-29   2.40000032386082E-10   3.58771134036886E-14   0.00000000000000E+00   2.39995711901772E-14
      0.00000000000000E+00  -9.84756507627709E-13  -2.39015274182911E-10  -1.24196849539641E-24  -2.40000030690540E-10
     -3.74867613286548E-14
      1.65000000000000E-11
      1.61594442415056E-07   1.61594417665056E-07   0.00000000000000E+00   2.04706926241602E-10   4.27933937161054E-11
     -9.01298328731624E-30   2.47500319957707E-10   3.58771135236441E-14   0.00000000000000E+00   2.47495894788989E-14
      0.00000000000000E+00  -9.84856801173855E-13  -2.46515471334754E-10   1.12157151983321E-24  -2.47500328135926E-10
     -3.74867614486104E-14
      1.70000000000000E-11
      1.68353886525544E-07   1.68353861025543E-07   0.00000000000000E+00   2.10906931139085E-10   4.40930364340014E-11
     -2.60088946291126E-29   2.54999967573086E-10   3.58771136472890E-14   0.00000000000000E+00   2.54995684787140E-14
      0.00000000000000E+00  -9.84576183107950E-13  -2.54015370128893E-10  -5.40462770973629E-25  -2.54999946312001E-10
     -3.74867615722548E-14
      1.75000000000000E-11
      1.75206740066320E-07   1.75206713816320E-07   0.00000000000000E+00   2.17107484895740E-10   4.53925569886445E-11
     -1.10730937529885E-29   2.62500041884385E-10   3.58771137746238E-14   0.00000000000000E+00   2.62495740692924E-14
      0.00000000000000E+00  -9.84681252201105E-13  -2.61515355380533E-10   9.05478293120100E-25  -2.62500036632733E-10
     -3.74867616995897E-14
      1.80000000000000E-11
      1.82152781113747E-07   1.82152754113748E-07   0.00000000000000E+00   2.23307911080089E-10   4.66925019507286E-11
     -1.72534251500054E-29   2.70000413030818E-10   3.58771139056476E-14   0.00000000000000E+00   2.69995999274394E-14
      0.00000000000000E+00  -9.84981908553342E-13  -2.69015422746111E-10   1.14323358302063E-24  -2.70000404654663E-10
     -3.74867618306122E-14
      1.85000000000000E-11
      1.89191807121680E-07   1.89191779371680E-07   0.00000000000000E+00   2.29507830071782E-10   4.79924922619553E-11
      4.30048059709089E-29   2.77500322333737E-10   3.58771140403616E-14   0.00000000000000E+00   2.77495903311997E-14
      0.00000000000000E+00  -9.84880624778136E-13  -2.76515415258206E-10   1.89468565549769E-24  -2.77500295882982E-10
     -3.74867619653256E-14
      1.90000000000000E-11
      1.96323599951084E-07   1.96323571451085E-07   0.00000000000000E+00   2.35707521632711E-10   4.92922784437540E-11
     -3.50218779164288E-29   2.84999800076465E-10   3.58771141787649E-14   0.00000000000000E+00   2.84995458729906E-14
      0.00000000000000E+00  -9.84672905792035E-13  -2.84015144525758E-10  -9.32857162708361E-25  -2.84999817431551E-10
     -3.74867621037308E-14
      1.95000000000000E-11
      2.03548208937594E-07   2.03548179687595E-07   0.00000000000000E+00   2.41908193432554E-10   5.05919211338003E-11
     -5.87131482716600E-29   2.92500114566354E-10   3.58771143208579E-14   0.00000000000000E+00   2.92495770217912E-14
      0.00000000000000E+00  -9.84704501985504E-13  -2.91515425887622E-10   9.21528612973327E-25  -2.92500130389606E-10
     -3.74867622458213E-14
      2.00000000000000E-11
      2.10865288113640E-07   2.10865258113640E-07   0.00000000000000E+00   2.48108050641795E-10   5.18921901077133E-11
     -3.09016569850842E-30   3.00000240749508E-10   3.58771144666404E-14   0.00000000000000E+00   2.99995919144231E-14
      0.00000000000000E+00  -9.84837291623048E-13  -2.99015393560200E-10   8.87380224286948E-25  -3.00000230851822E-10
     -3.74867623916044E-14
      2.05000000000000E-11
      2.18274812532080E-07   2.18274781782082E-07   0.00000000000000E+00   2.54307837930265E-10   5.31919382779466E-11
      2.31762427388132E-29   3.07499776208212E-10   3.58771146161127E-14   0.00000000000000E+00   3.07495492223885E-14
      0.00000000000000E+00  -9.84591580375602E-13  -3.06515241837611E-10   1.29822187228085E-24  -3.07499833417985E-10
     -3.74867625410758E-14
      2.10000000000000E-11
      2.25776661575764E-07   2.25776630075763E-07   0.00000000000000E+00   2.60508119486090E-10   5.44913535646047E-11
     -5.04727064089709E-29   3.14999473050695E-10   3.58771147692743E-14   0.00000000000000E+00   3.14995195774841E-14
      0.00000000000000E+00  -9.84331372300739E-13  -3.14015096889863E-10   2.20525348732889E-24  -3.14999428262161E-10
     -3.74867626942362E-14
      2.15000000000000E-11
      2.33370863848730E-07   2.33370831598731E-07   0.00000000000000E+00   2.66708977164598E-10   5.57912073116536E-11
      2.57513808209035E-29   3.22500184476252E-10   3.58771149261257E-14   0.00000000000000E+00   3.22495885218050E-14
      0.00000000000000E+00  -9.84781914144284E-13  -3.21515408079623E-10  -8.83717347667412E-25  -3.22500189993768E-10
     -3.74867628510887E-14
      2.20000000000000E-11
      2.41057171302801E-07   2.41057138302802E-07   0.00000000000000E+00   2.72908760351326E-10   5.70913285610901E-11
     -5.04727064089709E-29   3.30000088912417E-10   3.58771150866665E-14   0.00000000000000E+00   3.29995779999467E-14
      0.00000000000000E+00  -9.84870851186075E-13  -3.29015252665938E-10   4.56256785920653E-25  -3.30000123517124E-10
     -3.74867630116279E-14
      2.25000000000000E-11
      2.48835636229481E-07   2.48835602479482E-07   0.00000000000000E+00   2.79108566202167E-10   5.83912162237246E-11
      1.39057456432879E-29   3.37499782425892E-10   3.58771152508967E-14   0.00000000000000E+00   3.37495530496881E-14
      0.00000000000000E+00  -9.84550259114350E-13  -3.36515266583885E-10   2.93384657487092E-24  -3.37499816842997E-10
     -3.74867631758628E-14
      2.30000000000000E-11
      2.56706169005781E-07   2.56706134505782E-07   0.00000000000000E+00   2.85308571464251E-10   5.96911977573187E-11
      9.11598881059985E-29   3.44999769221569E-10   3.58771154188168E-14   0.00000000000000E+00   3.44995520771734E-14
      0.00000000000000E+00  -9.84522737474358E-13  -3.44015254479987E-10  -1.93253812422672E-24  -3.44999777217464E-10
     -3.74867633437805E-14
      2.35000000000000E-11
      2.64668662100658E-07   2.64668626850658E-07   0.00000000000000E+00   2.91508628104178E-10   6.09907660398100E-11
     -1.44207732597060E-29   3.52499394143988E-10   3.58771155904264E-14   0.00000000000000E+00   3.52495102526306E-14
      0.00000000000000E+00  -9.84416318638389E-13  -3.51515012111461E-10   4.61034181222897E-25  -3.52499428430099E-10
     -3.74867635153922E-14
      2.40000000000000E-11
      2.72723238393911E-07   2.72723202393912E-07   0.00000000000000E+00   2.97709360741712E-10   6.22905121699392E-11
      6.02582311209143E-29   3.59999872911651E-10   3.58771157657256E-14   0.00000000000000E+00   3.59995522257209E-14
      0.00000000000000E+00  -9.84614940411053E-13  -3.59015282494139E-10   2.17954330962363E-24  -3.59999897434548E-10
     -3.74867636906922E-14
      2.45000000000000E-11
      2.80869692674870E-07   2.80869655924870E-07   0.00000000000000E+00   3.03909821221426E-10   6.35902621876394E-11
      7.36489491477841E-29   3.67500083409066E-10   3.58771159447145E-14   0.00000000000000E+00   3.67495702581442E-14
      0.00000000000000E+00  -9.84819002344591E-13  -3.66515299859976E-10   1.38926433436966E-24  -3.67500118862319E-10
     -3.74867638696806E-14
      2.50000000000000E-11
      2.89108049202471E-07   2.89108011702472E-07   0.00000000000000E+00   3.10110013435100E-10   6.48901131044315E-11
     -2.26612151223951E-29   3.75000126539531E-10   3.58771161273926E-14   0.00000000000000E+00   3.74995836244197E-14
      0.00000000000000E+00  -9.84769924994906E-13  -3.74015346909275E-10  -1.11090426983825E-24  -3.75000116834271E-10
     -3.74867640523572E-14
      2.55000000000000E-11
      2.97438324994543E-07   2.97438286744543E-07   0.00000000000000E+00   3.16309960861773E-10   6.61904849065060E-11
      7.36489491477841E-29   3.82500445768279E-10   3.58771163137606E-14   0.00000000000000E+00   3.82496141544661E-14
      0.00000000000000E+00  -9.84936448950688E-13  -3.81515501972985E-10  -3.71938523612683E-25  -3.82500438421936E-10
     -3.74867642387277E-14
      2.60000000000000E-11
      3.05860292001913E-07   3.05860253001913E-07   0.00000000000000E+00   3.22509728268384E-10   6.74897738775466E-11
      5.04727064089709E-29   3.89999502145931E-10   3.58771165038180E-14   0.00000000000000E+00   3.89995129480548E-14
      0.00000000000000E+00  -9.84452902655771E-13  -3.89015014464970E-10   1.63890645787671E-24  -3.89999467367624E-10
     -3.74867644287843E-14
      2.65000000000000E-11
      3.14374220664247E-07   3.14374180914247E-07   0.00000000000000E+00   3.28709981424622E-10   6.87900615895542E-11
     -2.98716017522481E-29   3.97500043014177E-10   3.58771166975652E-14   0.00000000000000E+00   3.97495683154821E-14
      0.00000000000000E+00  -9.84792435407603E-13  -3.96515241584951E-10  -2.03279545609416E-24  -3.97500034020360E-10
     -3.74867646225317E-14
      2.70000000000000E-11
      3.22979974426242E-07   3.22979933926244E-07   0.00000000000000E+00   3.34910519397727E-10   7.00895653239331E-11
     -2.16311598895590E-29   4.05000084721660E-10   3.58771168950016E-14   0.00000000000000E+00   4.04995723900540E-14
      0.00000000000000E+00  -9.84645671537713E-13  -4.04015409480726E-10   1.80630485626830E-24  -4.05000055152262E-10
     -3.74867648199673E-14
      2.75000000000000E-11
      3.31677415364946E-07   3.31677374114946E-07   0.00000000000000E+00   3.41110309497452E-10   7.13898255656143E-11
     -8.44645290925636E-29   4.12500135063067E-10   3.58771170961281E-14   0.00000000000000E+00   4.12495806051806E-14
      0.00000000000000E+00  -9.84868910093364E-13  -4.11515265646722E-10  -7.39909274933987E-25  -4.12500134556817E-10
     -3.74867650210920E-14
      2.80000000000000E-11
      3.40466685098739E-07   3.40466643098737E-07   0.00000000000000E+00   3.47310553554306E-10   7.26893081753577E-11
     -9.78552471194334E-30   4.19999861729664E-10   3.58771173009438E-14   0.00000000000000E+00   4.19995574400890E-14
      0.00000000000000E+00  -9.84581719488343E-13  -4.19015293666771E-10  -4.15880679752028E-25  -4.19999875386260E-10
     -3.74867652259076E-14
      2.85000000000000E-11
      3.49347642445290E-07   3.49347599695292E-07   0.00000000000000E+00   3.53510588848477E-10   7.39892851883616E-11
      1.64808837253783E-29   4.27499874036839E-10   3.58771175094490E-14   0.00000000000000E+00   4.27495519852135E-14
      0.00000000000000E+00  -9.84702580845825E-13  -4.26515136473817E-10  -1.97817575371477E-24  -4.27499839054665E-10
     -3.74867654344140E-14
      2.90000000000000E-11
      3.58320443932840E-07   3.58320400432842E-07   0.00000000000000E+00   3.59710902743044E-10   7.52890952743395E-11
      1.18456351776156E-29   4.34999998017384E-10   3.58771177216438E-14   0.00000000000000E+00   4.34995725222607E-14
      0.00000000000000E+00  -9.84665804428962E-13  -4.34015326556309E-10   3.69265736460646E-24  -4.34999992360734E-10
     -3.74867656466068E-14
      2.95000000000000E-11
      3.67384922897639E-07   3.67384878647640E-07   0.00000000000000E+00   3.65911114894053E-10   7.65889854030551E-11
     -1.44207732597060E-29   4.42500100297108E-10   3.58771179375282E-14   0.00000000000000E+00   4.42495718570934E-14
      0.00000000000000E+00  -9.84832708005072E-13  -4.41515261960335E-10  -2.99972272730995E-24  -4.42500094668343E-10
     -3.74867658624951E-14
      3.00000000000000E-11
      3.76541167914953E-07   3.76541122914953E-07   0.00000000000000E+00   3.72111442072127E-10   7.78887522843730E-11
      8.90997776403262E-29   4.50000194356500E-10   3.58771181571024E-14   0.00000000000000E+00   4.49995809562379E-14
      0.00000000000000E+00  -9.84779510346378E-13  -4.49015398037440E-10  -1.36296084479110E-24  -4.50000177547788E-10
     -3.74867660820690E-14
      3.05000000000000E-11
      3.85789061845063E-07   3.85789016095065E-07   0.00000000000000E+00   3.78311064870133E-10   7.91890862318816E-11
     -2.06011046567228E-29   4.57500151102015E-10   3.58771183803658E-14   0.00000000000000E+00   4.57495786316726E-14
      0.00000000000000E+00  -9.84918632169061E-13  -4.56515259718186E-10   2.26739875524640E-25  -4.57500178350355E-10
     -3.74867663053299E-14
      3.10000000000000E-11
      3.95128769121131E-07   3.95128722621135E-07   0.00000000000000E+00   3.84511394448536E-10   8.04885913317841E-11
     -9.68251918865973E-29   4.64999985780320E-10   3.58771186073191E-14   0.00000000000000E+00   4.64995713480697E-14
      0.00000000000000E+00  -9.84627267020344E-13  -4.64015389642790E-10  -1.29215484658775E-24  -4.65000016909811E-10
     -3.74867665322815E-14
      3.15000000000000E-11
      4.04560104639330E-07   4.04560057389330E-07   0.00000000000000E+00   3.90711713042167E-10   8.17885440481132E-11
     -8.24044186268913E-30   4.72500257090280E-10   3.58771188379616E-14   0.00000000000000E+00   4.72495917965323E-14
      0.00000000000000E+00  -9.84861796476927E-13  -4.71515410361282E-10  -1.00191824616528E-24  -4.72500272157760E-10
     -3.74867667629265E-14
      3.20000000000000E-11
      4.14083103416708E-07   4.14083055416709E-07   0.00000000000000E+00   3.96911375932723E-10   8.30885131342472E-11
     -2.47213255880674E-29   4.79999889066970E-10   3.58771190722938E-14   0.00000000000000E+00   4.79995605501135E-14
      0.00000000000000E+00  -9.84745503391283E-13  -4.79015178692309E-10  -2.91454952303257E-24  -4.79999924195703E-10
     -3.74867669972584E-14
      3.25000000000000E-11
      4.23697856627724E-07   4.23697807877724E-07   0.00000000000000E+00   4.03111223877937E-10   8.43887244162379E-11
     -8.75546947910720E-29   4.87499948294174E-10   3.58771193103158E-14   0.00000000000000E+00   4.87495577718136E-14
      0.00000000000000E+00  -9.84664484953577E-13  -4.86515277729403E-10  -3.18022548826820E-24  -4.87499942214360E-10
     -3.74867672352791E-14
      3.30000000000000E-11
      4.33404314302453E-07   4.33404264802454E-07   0.00000000000000E+00   4.09311576113567E-10   8.56881867086780E-11
     -5.66530378059878E-29   4.94999762822245E-10   3.58771195520271E-14   0.00000000000000E+00   4.94995486369157E-14
      0.00000000000000E+00  -9.84435542484924E-13  -4.94015311544120E-10  -7.29233783994886E-25  -4.94999747086606E-10
     -3.74867674769928E-14
      3.35000000000000E-11
      4.43202439687889E-07   4.43202389437891E-07   0.00000000000000E+00   4.15512274102261E-10   8.69879229397825E-11
     -2.78114912865758E-29   5.02500197042044E-10   3.58771197974281E-14   0.00000000000000E+00   5.02495764336036E-14
      0.00000000000000E+00  -9.84797209374708E-13  -5.01515348761065E-10  -2.52419566843009E-24  -5.02500145970443E-10
     -3.74867677223925E-14
      3.40000000000000E-11
      4.53092187959739E-07   4.53092136959740E-07   0.00000000000000E+00   4.21711703824228E-10   8.82883394496196E-11
     -2.47213255880674E-29   5.10000043273847E-10   3.58771200465184E-14   0.00000000000000E+00   5.09995746605967E-14
      0.00000000000000E+00  -9.84773060702840E-13  -5.09015234963697E-10  -1.35087211442709E-24  -5.10000008024401E-10
     -3.74867679714833E-14
      3.45000000000000E-11
      4.63073734271702E-07   4.63073682521702E-07   0.00000000000000E+00   4.27912064040063E-10   8.95878519098293E-11
      9.47650814209250E-29   5.17499915949893E-10   3.58771202992987E-14   0.00000000000000E+00   5.17495678060522E-14
      0.00000000000000E+00  -9.84489460092919E-13  -5.16515427819642E-10  -7.88457840473688E-25  -5.17499917279736E-10
     -3.74867682242631E-14
      3.50000000000000E-11
      4.73146809990304E-07   4.73146757490302E-07   0.00000000000000E+00   4.34112031157094E-10   9.08878699616322E-11
     -3.29617674507565E-29   5.24999901118726E-10   3.58771205557681E-14   0.00000000000000E+00   5.24995529372527E-14
      0.00000000000000E+00  -9.84807241704842E-13  -5.24015122534310E-10  -2.99723411361471E-24  -5.24999929776017E-10
     -3.74867684807319E-14
      3.55000000000000E-11
      4.83311647864025E-07   4.83311594614027E-07   0.00000000000000E+00   4.40311814102985E-10   9.21879518409219E-11
     -2.47213255880674E-29   5.32499765943907E-10   3.58771208159270E-14   0.00000000000000E+00   5.32495445451765E-14
      0.00000000000000E+00  -9.84579966842249E-13  -5.31515186319259E-10   1.69917911182372E-24  -5.32499766286100E-10
     -3.74867687408926E-14
      3.60000000000000E-11