DF-ISE text

Info {
  version   = 1.0
  type      = xyplot
  datasets  = [
    "time"
    "cathode OuterVoltage" "cathode InnerVoltage" "cathode QuasiFermiPotential" "cathode DisplacementCurrent" "cathode eCurrent"
    "cathode hCurrent" "cathode TotalCurrent" "cathode Charge" "cathode1 OuterVoltage" "cathode1 InnerVoltage"
    "cathode1 QuasiFermiPotential" "cathode1 DisplacementCurrent" "cathode1 eCurrent" "cathode1 hCurrent" "cathode1 TotalCurrent"
    "cathode1 Charge" "anode OuterVoltage" "anode InnerVoltage" "anode QuasiFermiPotential" "anode DisplacementCurrent"
    "anode eCurrent" "anode hCurrent" "anode TotalCurrent" "anode Charge" "LayerStack(Window1) R_TE"
    "LayerStack(Window1) T_TE" "LayerStack(Window1) A_TE" "LayerStack(Window1) R_TM" "LayerStack(Window1) T_TM" "LayerStack(Window1) A_TM"
    "LayerStack(Window1) R_Total" "LayerStack(Window1) T_Total" "LayerStack(Window1) A_Total" ]
  functions = [
    Time
    OuterVoltage InnerVoltage QuasiFermiPotential DisplacementCurrent eCurrent
    hCurrent TotalCurrent Charge OuterVoltage InnerVoltage
    QuasiFermiPotential DisplacementCurrent eCurrent hCurrent TotalCurrent
    Charge OuterVoltage InnerVoltage QuasiFermiPotential DisplacementCurrent
    eCurrent hCurrent TotalCurrent Charge R_TE
    T_TE A_TE R_TM T_TM A_TM
    R_Total T_Total A_Total ]
}

Data {
      0.00000000000000E+00
      3.00000000000000E+01   3.00000000000000E+01   0.00000000000000E+00   0.00000000000000E+00   7.18644930485956E-15
     -7.18644930485956E-15   0.00000000000000E+00   9.65068937403162E-14   3.00000000000000E+01   3.00000000000000E+01
      0.00000000000000E+00   0.00000000000000E+00   1.67559678046467E-14  -1.67559678046467E-14   0.00000000000000E+00
      9.65068937403161E-14   3.00000000000000E+01   3.00000000000000E+01   0.00000000000000E+00   0.00000000000000E+00
      1.69792719607969E-12  -1.69792719607969E-12  -7.80534653233914E-27  -2.21967106213370E-13   4.31936125575985E-01
      2.15235338157944E-07   5.68063659188677E-01   4.31936125575985E-01   2.15235338157944E-07   5.68063659188677E-01
      4.31936125575985E-01   2.15235338157944E-07   5.68063659188677E-01
      0.00000000000000E+00
      3.00000000000000E+01   3.00000000000000E+01   0.00000000000000E+00   0.00000000000000E+00   7.18644930347092E-15
     -7.18644930485956E-15  -1.38863888453524E-24   1.17081809434209E-14   3.00000000000000E+01   3.00000000000000E+01
      0.00000000000000E+00   0.00000000000000E+00   1.67559678083658E-14  -1.67559678046467E-14   3.71907292529211E-24
      1.17248009024567E-14   3.00000000000000E+01   3.00000000000000E+01   0.00000000000000E+00   0.00000000000000E+00
      1.69792719607736E-12  -1.69792719607969E-12  -2.33232192598761E-24  -2.34329818458778E-14   4.31936125575985E-01
      2.15235338157944E-07   5.68063659188677E-01   4.31936125575985E-01   2.15235338157944E-07   5.68063659188677E-01
      4.31936125575985E-01   2.15235338157944E-07   5.68063659188677E-01
      0.00000000000000E+00
      3.00000000000000E+01   3.00000000000000E+01   0.00000000000000E+00   0.00000000000000E+00   7.17839620368416E-13
     -2.76567143274752E-18   7.17836854696983E-13   1.17081470835376E-14   3.00000000000000E+01   3.00000000000000E+01
      0.00000000000000E+00   0.00000000000000E+00   7.28504708073465E-13  -9.89835967153278E-18   7.28494809713794E-13
      1.17247674523340E-14   3.00000000000000E+01   3.00000000000000E+01   0.00000000000000E+00   0.00000000000000E+00
     -1.41848901945087E-12  -2.78426449521345E-14  -1.44633166440300E-12  -2.34329145358716E-14   4.31936125575985E-01
      2.15235338157944E-07   5.68063659188677E-01   4.31936125575985E-01   2.15235338157944E-07   5.68063659188677E-01
      4.31936125575985E-01   2.15235338157944E-07   5.68063659188677E-01
      3.00000000000000E-03
      3.00000000000000E+01   3.00000000000000E+01   0.00000000000000E+00   0.00000000000000E+00   6.59341658497807E-13
      4.20605298008134E-16   6.59762263795815E-13   1.22008051404989E-14   3.00000000000000E+01   3.00000000000000E+01
      0.00000000000000E+00   0.00000000000000E+00   3.72047377748032E-13   9.06099835866516E-17   3.72137987731619E-13
      1.22218786212867E-14   2.99100000000000E+01   2.99100000000000E+01   0.00000000000000E+00   0.00000000000000E+00
     -1.19609454730265E-12   1.64194295774483E-13  -1.03190025152817E-12  -2.44226837617856E-14   4.31936125575985E-01
      2.15235338157944E-07   5.68063659188677E-01   4.31936125575985E-01   2.15235338157944E-07   5.68063659188677E-01
      4.31936125575985E-01   2.15235338157944E-07   5.68063659188677E-01
      6.00000000000000E-03
      3.00000000000000E+01   3.00000000000000E+01   0.00000000000000E+00   0.00000000000000E+00   9.68030137851299E-12
      9.12162532006814E-15   9.68942300383306E-12   1.26769351417482E-14   3.00000000000000E+01   3.00000000000000E+01
      0.00000000000000E+00   0.00000000000000E+00   1.53172932634105E-11   9.57133166081268E-16   1.53182503965766E-11
      1.26809621829263E-14   2.98200000000000E+01   2.98200000000000E+01   0.00000000000000E+00   0.00000000000000E+00
     -4.77933920171076E-11   2.27857186166913E-11  -2.50076734004164E-11  -2.53578973246745E-14   4.31936125575985E-01
      2.15235338157944E-07   5.68063659188677E-01   4.31936125575985E-01   2.15235338157944E-07   5.68063659188677E-01
      4.31936125575985E-01   2.15235338157944E-07   5.68063659188677E-01
      9.00000000000000E-03
      3.00000000000000E+01   3.00000000000000E+01   0.00000000000000E+00   0.00000000000000E+00   3.86619946677126E-12
      7.02005551774081E-18   3.86620648682678E-12   1.31130110198253E-14   3.00000000000000E+01   3.00000000000000E+01
      0.00000000000000E+00   0.00000000000000E+00   2.40248398232014E-12   3.60896369271973E-16   2.40284487868941E-12
      1.30711951330056E-14   2.97300000000000E+01   2.97300000000000E+01   0.00000000000000E+00   0.00000000000000E+00
     -1.08390530003364E-11   4.57000163482698E-12  -6.26905136550944E-12  -2.61842061528309E-14   4.31936125575985E-01
      2.15235338157944E-07   5.68063659188677E-01   4.31936125575985E-01   2.15235338157944E-07   5.68063659188677E-01
      4.31936125575985E-01   2.15235338157944E-07   5.68063659188677E-01
      1.20000000000000E-02
      3.00000000000000E+01   3.00000000000000E+01   0.00000000000000E+00   0.00000000000000E+00   7.50734084701122E-13
      2.33467567449802E-21   7.50734087035797E-13   1.35172103173173E-14   3.00000000000000E+01   3.00000000000000E+01
      0.00000000000000E+00   0.00000000000000E+00   7.57049331141635E-13   3.58363399745475E-21   7.57049334725269E-13
      1.34433188345342E-14   2.96400000000000E+01   2.96400000000000E+01   0.00000000000000E+00   0.00000000000000E+00
     -1.51505315968797E-12   7.26973792655028E-15  -1.50778342176142E-12  -2.69605291518515E-14   4.31936125575985E-01
      2.15235338157944E-07   5.68063659188677E-01   4.31936125575985E-01   2.15235338157944E-07   5.68063659188677E-01
      4.31936125575985E-01   2.15235338157944E-07   5.68063659188677E-01
      1.50000000000000E-02
      3.00000000000000E+01   3.00000000000000E+01   0.00000000000000E+00   0.00000000000000E+00   7.54720526557665E-13
      6.71554081421565E-21   7.54720533273205E-13   1.39028307514292E-14   3.00000000000000E+01   3.00000000000000E+01
      0.00000000000000E+00   0.00000000000000E+00   7.62599547710464E-13   8.47538776653017E-21   7.62599556185852E-13
      1.38142815194161E-14   2.95500000000000E+01   2.95500000000000E+01   0.00000000000000E+00   0.00000000000000E+00
     -1.51819512036589E-12   8.75030906845170E-16  -1.51732008945905E-12  -2.77171122708452E-14   4.31936125575985E-01
      2.15235338157944E-07   5.68063659188677E-01   4.31936125575985E-01   2.15235338157944E-07   5.68063659188677E-01
      4.31936125575985E-01   2.15235338157944E-07   5.68063659188677E-01
      1.80000000000000E-02
      3.00000000000000E+01   3.00000000000000E+01   0.00000000000000E+00   0.00000000000000E+00   7.61353743690460E-13
     -6.26675709605546E-24   7.61353743684194E-13   1.42851213630857E-14   3.00000000000000E+01   3.00000000000000E+01
      0.00000000000000E+00   0.00000000000000E+00   7.68860138671051E-13  -2.69663532503307E-24   7.68860138668354E-13
      1.41835176000757E-14   2.94600000000000E+01   2.94600000000000E+01   0.00000000000000E+00   0.00000000000000E+00
     -1.53545144249710E-12   5.23756014454690E-15  -1.53021388235255E-12  -2.84686389631612E-14   4.31936125575985E-01
      2.15235338157944E-07   5.68063659188677E-01   4.31936125575985E-01   2.15235338157944E-07   5.68063659188677E-01
      4.31936125575985E-01   2.15235338157944E-07   5.68063659188677E-01
      2.10000000000000E-02
      3.00000000000000E+01   3.00000000000000E+01   0.00000000000000E+00   0.00000000000000E+00   7.68531174779136E-13
     -2.13897216396477E-23   7.68531174757746E-13   1.46632702194864E-14   3.00000000000000E+01   3.00000000000000E+01
      0.00000000000000E+00   0.00000000000000E+00   7.75610637303752E-13  -3.55125046602497E-23   7.75610637268240E-13
      1.45494849197016E-14   2.93700000000000E+01   2.93700000000000E+01   0.00000000000000E+00   0.00000000000000E+00
     -1.54785532115926E-12   3.71350913326599E-15  -1.54414181202600E-12  -2.92127551391880E-14   4.31936125575985E-01
      2.15235338157944E-07   5.68063659188677E-01   4.31936125575985E-01   2.15235338157944E-07   5.68063659188677E-01
      4.31936125575985E-01   2.15235338157944E-07   5.68063659188677E-01
      2.40000000000000E-02
      3.00000000000000E+01   3.00000000000000E+01   0.00000000000000E+00   0.00000000000000E+00   7.76114182128930E-13
      7.29929477925997E-20   7.76114255121878E-13   1.50340451888063E-14   3.00000000000000E+01   3.00000000000000E+01
      0.00000000000000E+00   0.00000000000000E+00   7.84418183874113E-13   1.73969526084640E-19   7.84418357843639E-13
      1.49089341056561E-14   2.92800000000000E+01   2.92800000000000E+01   0.00000000000000E+00   0.00000000000000E+00
     -1.56549898527374E-12   4.96637230839613E-15  -1.56053261296535E-12  -2.99429792944625E-14   4.31936125575985E-01
      2.15235338157944E-07   5.68063659188677E-01   4.31936125575985E-01   2.15235338157944E-07   5.68063659188677E-01
      4.31936125575985E-01   2.15235338157944E-07   5.68063659188677E-01
      2.70000000000000E-02
      3.00000000000000E+01   3.00000000000000E+01   0.00000000000000E+00   0.00000000000000E+00   7.83887795294122E-13
      9.93725949462516E-20   7.83887894666717E-13   1.53900785296739E-14   3.00000000000000E+01   3.00000000000000E+01
      0.00000000000000E+00   0.00000000000000E+00   7.90380029928814E-13   1.92847402156073E-19   7.90380222776216E-13
      1.52568693621427E-14   2.91900000000000E+01   2.91900000000000E+01   0.00000000000000E+00   0.00000000000000E+00
     -1.57402775731175E-12  -2.40360131284358E-16  -1.57426811744304E-12  -3.06469478918166E-14   4.31936125575985E-01
      2.15235338157944E-07   5.68063659188677E-01   4.31936125575985E-01   2.15235338157944E-07   5.68063659188677E-01
      4.31936125575985E-01   2.15235338157944E-07   5.68063659188677E-01
      3.00000000000000E-02
      3.00000000000000E+01   3.00000000000000E+01   0.00000000000000E+00   0.00000000000000E+00   7.91509224521436E-13
      2.29007556409714E-20   7.91509247422192E-13   1.57273523072490E-14   3.00000000000000E+01   3.00000000000000E+01
      0.00000000000000E+00   0.00000000000000E+00   7.97582929220523E-13   3.80007166984911E-20   7.97582967221240E-13
      1.55916463506095E-14   2.91000000000000E+01   2.91000000000000E+01   0.00000000000000E+00   0.00000000000000E+00
     -1.59900378200867E-12   9.91156736525145E-15  -1.58909221464342E-12  -3.13189986578586E-14   4.31936125575985E-01
      2.15235338157944E-07   5.68063659188677E-01   4.31936125575985E-01   2.15235338157944E-07   5.68063659188677E-01
      4.31936125575985E-01   2.15235338157944E-07   5.68063659188677E-01
      3.30000000000000E-02
      3.00000000000000E+01   3.00000000000000E+01   0.00000000000000E+00   0.00000000000000E+00   7.99170791377796E-13
     -4.71373823342927E-22   7.99170790906422E-13   1.60586800696828E-14   3.00000000000000E+01   3.00000000000000E+01
      0.00000000000000E+00   0.00000000000000E+00   8.05203894266460E-13  -3.25720114382112E-25   8.05203894266134E-13
      1.59226244689385E-14   2.90100000000000E+01   2.90100000000000E+01   0.00000000000000E+00   0.00000000000000E+00
     -1.61163975156172E-12   7.26506638916340E-15  -1.60437468517256E-12  -3.19813045386213E-14   4.31936125575985E-01
      2.15235338157944E-07   5.68063659188677E-01   4.31936125575985E-01   2.15235338157944E-07   5.68063659188677E-01
      4.31936125575985E-01   2.15235338157944E-07   5.68063659188677E-01
      3.60000000000000E-02
      3.00000000000000E+01   3.00000000000000E+01   0.00000000000000E+00   0.00000000000000E+00   8.07167490069398E-13
     -1.37782062900087E-20   8.07167476291192E-13   1.63888894685855E-14   3.00000000000000E+01   3.00000000000000E+01
      0.00000000000000E+00   0.00000000000000E+00   8.13213128890115E-13  -1.16563053709332E-26   8.13213128890103E-13
      1.62527967059727E-14   2.89200000000000E+01   2.89200000000000E+01   0.00000000000000E+00   0.00000000000000E+00
     -1.63210479320900E-12   1.17241880277068E-14  -1.62038060518129E-12  -3.26416861745582E-14   4.31936125575985E-01
      2.15235338157944E-07   5.68063659188677E-01   4.31936125575985E-01   2.15235338157944E-07   5.68063659188677E-01
      4.31936125575985E-01   2.15235338157944E-07   5.68063659188677E-01
      3.90000000000000E-02
      3.00000000000000E+01   3.00000000000000E+01   0.00000000000000E+00   0.00000000000000E+00   8.15530286033812E-13
     -6.18976575302605E-20   8.15530224136154E-13   1.67182188726571E-14   3.00000000000000E+01   3.00000000000000E+01
      0.00000000000000E+00   0.00000000000000E+00   8.21739256079498E-13   1.05057225288981E-21   8.21739257130070E-13
      1.65824225968264E-14   2.88300000000000E+01   2.88300000000000E+01   0.00000000000000E+00   0.00000000000000E+00
     -1.64578811604996E-12   8.51863478373572E-15  -1.63726948126622E-12  -3.33006414694835E-14   4.31936125575985E-01
      2.15235338157944E-07   5.68063659188677E-01   4.31936125575985E-01   2.15235338157944E-07   5.68063659188677E-01
      4.31936125575985E-01   2.15235338157944E-07   5.68063659188677E-01
      4.20000000000000E-02
      3.00000000000000E+01   3.00000000000000E+01   0.00000000000000E+00   0.00000000000000E+00   8.24311282902623E-13
      6.47313787193307E-19   8.24311930216410E-13   1.70467807947795E-14   3.00000000000000E+01   3.00000000000000E+01
      0.00000000000000E+00   0.00000000000000E+00   8.31587117631682E-13   2.31813908972721E-20   8.31587140813073E-13
      1.69114624821270E-14   2.87400000000000E+01   2.87400000000000E+01   0.00000000000000E+00   0.00000000000000E+00
     -1.65683992018181E-12   9.40849152332470E-16  -1.65589907102948E-12  -3.39582432769066E-14   4.31936125575985E-01
      2.15235338157944E-07   5.68063659188677E-01   4.31936125575985E-01   2.15235338157944E-07   5.68063659188677E-01
      4.31936125575985E-01   2.15235338157944E-07   5.68063659188677E-01
      4.50000000000000E-02
      3.00000000000000E+01   3.00000000000000E+01   0.00000000000000E+00   0.00000000000000E+00   8.33556937153596E-13
      2.67092312344596E-17   8.33583646384831E-13   1.73745182400245E-14   3.00000000000000E+01   3.00000000000000E+01
      0.00000000000000E+00   0.00000000000000E+00   8.49044667273059E-13   1.98415820646176E-18   8.49046651431265E-13
      1.72397568731284E-14   2.86500000000000E+01   2.86500000000000E+01   0.00000000000000E+00   0.00000000000000E+00
     -1.70830574379661E-12   2.56754459805144E-14  -1.68263029781609E-12  -3.46142751131529E-14   4.31936125575985E-01
      2.15235338157944E-07   5.68063659188677E-01   4.31936125575985E-01   2.15235338157944E-07   5.68063659188677E-01
      4.31936125575985E-01   2.15235338157944E-07   5.68063659188677E-01
      4.80000000000000E-02
      3.00000000000000E+01   3.00000000000000E+01   0.00000000000000E+00   0.00000000000000E+00   8.43484749636340E-13
      5.65533338074125E-16   8.44050282974414E-13   1.77011817366643E-14   3.00000000000000E+01   3.00000000000000E+01
      0.00000000000000E+00   0.00000000000000E+00   9.21282682069561E-13   5.78815501435022E-17   9.21340563619705E-13
      1.75670163872047E-14   2.85600000000000E+01   2.85600000000000E+01   0.00000000000000E+00   0.00000000000000E+00
     -1.83456874516966E-12   6.91778985755376E-14  -1.76539084659412E-12  -3.52681981238690E-14   4.31936125575985E-01
      2.15235338157944E-07   5.68063659188677E-01   4.31936125575985E-01   2.15235338157944E-07   5.68063659188677E-01
      4.31936125575985E-01   2.15235338157944E-07   5.68063659188677E-01
      5.10000000000000E-02
      3.00000000000000E+01   3.00000000000000E+01   0.00000000000000E+00   0.00000000000000E+00   8.56091233187833E-13
      7.11636957164923E-15   8.63207602759482E-13   1.80263146002858E-14   3.00000000000000E+01   3.00000000000000E+01
      0.00000000000000E+00   0.00000000000000E+00   1.34824176465804E-12   8.60677188503383E-16   1.34910244184654E-12
      1.78926911494766E-14   2.84700000000000E+01   2.84700000000000E+01   0.00000000000000E+00   0.00000000000000E+00
     -2.64357290963443E-12   4.31262865028386E-13  -2.21231004460605E-12  -3.59190057497625E-14   4.31936125575985E-01
      2.15235338157944E-07   5.68063659188677E-01   4.31936125575985E-01   2.15235338157944E-07   5.68063659188677E-01
      4.31936125575985E-01   2.15235338157944E-07   5.68063659188677E-01
      5.40000000000000E-02
      3.00000000000000E+01   3.00000000000000E+01   0.00000000000000E+00   0.00000000000000E+00   8.86270456614574E-13
      6.22509007295459E-14   9.48521357344119E-13   1.83490897739931E-14   3.00000000000000E+01   3.00000000000000E+01
      0.00000000000000E+00   0.00000000000000E+00   2.52870551161979E-12   8.40317706186946E-15   2.53710868868166E-12
      1.82158964386637E-14   2.83800000000000E+01   2.83800000000000E+01   0.00000000000000E+00   0.00000000000000E+00
     -4.88326896627801E-12   1.39763892025222E-12  -3.48563004602579E-12  -3.65649862126568E-14   4.31936125575985E-01
      2.15235338157944E-07   5.68063659188677E-01   4.31936125575985E-01   2.15235338157944E-07   5.68063659188677E-01
      4.31936125575985E-01   2.15235338157944E-07   5.68063659188677E-01
      5.70000000000000E-02
      3.00000000000000E+01   3.00000000000000E+01   0.00000000000000E+00   0.00000000000000E+00   1.00571903114652E-12
      3.72734754674658E-13   1.37845378582117E-12   1.86680260557841E-14   3.00000000000000E+01   3.00000000000000E+01
      0.00000000000000E+00   0.00000000000000E+00   1.24607005326433E-12   6.56099698176023E-14   1.31168002308193E-12
      1.85361555024966E-14   2.82900000000000E+01   2.82900000000000E+01   0.00000000000000E+00   0.00000000000000E+00
     -3.08431634495557E-12   3.94182536053062E-13  -2.69013380890251E-12  -3.72041815582807E-14   4.31936125575985E-01
      2.15235338157944E-07   5.68063659188677E-01   4.31936125575985E-01   2.15235338157944E-07   5.68063659188677E-01
      4.31936125575985E-01   2.15235338157944E-07   5.68063659188677E-01
      6.00000000000000E-02
      3.00000000000000E+01   3.00000000000000E+01   0.00000000000000E+00   0.00000000000000E+00   1.42916943369631E-12
      1.58702909602664E-12   3.01619852972295E-12   1.89802706124461E-14   3.00000000000000E+01   3.00000000000000E+01
      0.00000000000000E+00   0.00000000000000E+00   1.09906455764387E-12   4.61696064208639E-13   1.56076062185250E-12
      1.88526710960690E-14   2.82000000000000E+01   2.82000000000000E+01   0.00000000000000E+00   0.00000000000000E+00
     -5.07588033978667E-12   4.98921188212039E-13  -4.57695915157463E-12  -3.78329417085150E-14   4.31936125575985E-01
      2.15235338157944E-07   5.68063659188677E-01   4.31936125575985E-01   2.15235338157944E-07   5.68063659188677E-01
      4.31936125575985E-01   2.15235338157944E-07   5.68063659188677E-01
      6.30000000000000E-02
      3.00000000000000E+01   3.00000000000000E+01   0.00000000000000E+00   0.00000000000000E+00   4.47809480512630E-12
      9.95791351870222E-12   1.44360083238285E-11   1.92826760248236E-14   3.00000000000000E+01   3.00000000000000E+01
      0.00000000000000E+00   0.00000000000000E+00   2.01986567635691E-12   2.65130907378977E-12   4.67117475014668E-12
      1.91626811362158E-14   2.81100000000000E+01   2.81100000000000E+01   0.00000000000000E+00   0.00000000000000E+00
     -2.19876273070811E-11   2.88044423310439E-12  -1.91071830739767E-11  -3.84453571610394E-14   4.31936125575985E-01
      2.15235338157944E-07   5.68063659188677E-01   4.31936125575985E-01   2.15235338157944E-07   5.68063659188677E-01
      4.31936125575985E-01   2.15235338157944E-07   5.68063659188677E-01
      6.60000000000000E-02
      3.00000000000000E+01   3.00000000000000E+01   0.00000000000000E+00   0.00000000000000E+00   9.71503385298799E-12
      2.42385273924691E-11   3.39535612454570E-11   1.95721724475418E-14   3.00000000000000E+01   3.00000000000000E+01
      0.00000000000000E+00   0.00000000000000E+00   7.37834998013920E-12   1.61455672251395E-11   2.35239172052787E-11
      1.94603990881530E-14   2.80200000000000E+01   2.80200000000000E+01   0.00000000000000E+00   0.00000000000000E+00
     -6.67115504996436E-11   9.23407204890343E-12  -5.74774784507401E-11  -3.90325715356948E-14   4.31936125575985E-01
      2.15235338157944E-07   5.68063659188677E-01   4.31936125575985E-01   2.15235338157944E-07   5.68063659188677E-01
      4.31936125575985E-01   2.15235338157944E-07   5.68063659188677E-01
      6.90000000000000E-02
      3.00000000000000E+01   3.00000000000000E+01   0.00000000000000E+00   0.00000000000000E+00   2.23387837500487E-10
      5.03168655119561E-10   7.26556492620048E-10   1.98453634558505E-14   3.00000000000000E+01   3.00000000000000E+01
      0.00000000000000E+00   0.00000000000000E+00   2.25358541295396E-11   4.52588664953540E-11   6.77947206248936E-11
      1.97404670730323E-14   2.79300000000000E+01   2.79300000000000E+01   0.00000000000000E+00   0.00000000000000E+00
     -9.53088061202005E-10   1.58736847957077E-10  -7.94351213244928E-10  -3.95858305288828E-14   4.31936125575985E-01
      2.15235338157944E-07   5.68063659188677E-01   4.31936125575985E-01   2.15235338157944E-07   5.68063659188677E-01
      4.31936125575985E-01   2.15235338157944E-07   5.68063659188677E-01
      7.20000000000000E-02
      3.00000000000000E+01   3.00000000000000E+01   0.00000000000000E+00   0.00000000000000E+00   6.03700582212199E-11
      5.42037131470291E-11   1.14573771368249E-10   2.01066448797215E-14   3.00000000000000E+01   3.00000000000000E+01
      0.00000000000000E+00   0.00000000000000E+00   6.35682051205701E-11   1.23594063415423E-10   1.87162268535993E-10
      2.00080256064662E-14   2.78400000000000E+01   2.78400000000000E+01   0.00000000000000E+00   0.00000000000000E+00
     -3.86586787481327E-10   8.48507475770841E-11  -3.01736039904243E-10  -4.01146704861877E-14   4.31936125575985E-01
      2.15235338157944E-07   5.68063659188677E-01   4.31936125575985E-01   2.15235338157944E-07   5.68063659188677E-01
      4.31936125575985E-01   2.15235338157944E-07   5.68063659188677E-01
      7.50000000000000E-02
      3.00000000000000E+01   3.00000000000000E+01   0.00000000000000E+00   0.00000000000000E+00   9.87116786083492E-12
      2.15313651474338E-11   3.14025330082688E-11   2.03621772184296E-14   3.00000000000000E+01   3.00000000000000E+01
      0.00000000000000E+00   0.00000000000000E+00   6.47066279817430E-11   7.86707451749032E-11   1.43377373156646E-10
      2.02700940354089E-14   2.77500000000000E+01   2.77500000000000E+01   0.00000000000000E+00   0.00000000000000E+00
     -2.22562278990743E-10   4.77823728258275E-11  -1.74779906164915E-10  -4.06322712538383E-14   4.31936125575985E-01
      2.15235338157944E-07   5.68063659188677E-01   4.31936125575985E-01   2.15235338157944E-07   5.68063659188677E-01
      4.31936125575985E-01   2.15235338157944E-07   5.68063659188677E-01
      7.80000000000000E-02
      3.00000000000000E+01   3.00000000000000E+01   0.00000000000000E+00   0.00000000000000E+00   1.12999851860767E-11
      1.84313159683183E-11   2.97313011543950E-11   2.06145018304227E-14   3.00000000000000E+01   3.00000000000000E+01
      0.00000000000000E+00   0.00000000000000E+00   3.98529208976251E-11   2.18395670532717E-12   4.20368776029523E-11
      2.05292852861207E-14   2.76600000000000E+01   2.76600000000000E+01   0.00000000000000E+00   0.00000000000000E+00
     -1.05254563619978E-10   3.34863848626307E-11  -7.17681787573471E-11  -4.11437871165435E-14   4.31936125575985E-01
      2.15235338157944E-07   5.68063659188677E-01   4.31936125575985E-01   2.15235338157944E-07   5.68063659188677E-01
      4.31936125575985E-01   2.15235338157944E-07   5.68063659188677E-01
      8.10000000000000E-02
      3.00000000000000E+01   3.00000000000000E+01   0.00000000000000E+00   0.00000000000000E+00   1.92712539104324E-11
      1.64500784436078E-12   2.09162617547932E-11   2.08624138330326E-14   3.00000000000000E+01   3.00000000000000E+01
      0.00000000000000E+00   0.00000000000000E+00   7.70093302515315E-11  -4.75288083632194E-13   7.65340421678993E-11
      2.07859940370389E-14   2.75700000000000E+01   2.75700000000000E+01   0.00000000000000E+00   0.00000000000000E+00
     -1.61162024580341E-10   6.37117206576490E-11  -9.74503039226924E-11  -4.16484078700715E-14   4.31936125575985E-01
      2.15235338157944E-07   5.68063659188677E-01   4.31936125575985E-01   2.15235338157944E-07   5.68063659188677E-01
      4.31936125575985E-01   2.15235338157944E-07   5.68063659188677E-01
      8.40000000000000E-02
      3.00000000000000E+01   3.00000000000000E+01   0.00000000000000E+00   0.00000000000000E+00   8.00228456637867E-11
     -1.45820046781677E-13   7.98770256170050E-11   2.11055166132789E-14   3.00000000000000E+01   3.00000000000000E+01
      0.00000000000000E+00   0.00000000000000E+00   1.44615117102419E-10  -1.19091615718711E-12   1.43424200945231E-10
      2.10392696885511E-14   2.74800000000000E+01   2.74800000000000E+01   0.00000000000000E+00   0.00000000000000E+00
     -3.69070223125345E-10   1.45768996563109E-10  -2.23301226562236E-10  -4.21447863018300E-14   4.31936125575985E-01
      2.15235338157944E-07   5.68063659188677E-01   4.31936125575985E-01   2.15235338157944E-07   5.68063659188677E-01
      4.31936125575985E-01   2.15235338157944E-07   5.68063659188677E-01
      8.70000000000000E-02
      3.00000000000000E+01   3.00000000000000E+01   0.00000000000000E+00   0.00000000000000E+00   1.75463688880869E-10
     -4.55796713755553E-13   1.75007892167114E-10   2.13442045922851E-14   3.00000000000000E+01   3.00000000000000E+01
      0.00000000000000E+00   0.00000000000000E+00   2.41282305144210E-10  -2.21205241997441E-12   2.39070252724235E-10
      2.12870934762958E-14   2.73900000000000E+01   2.73900000000000E+01   0.00000000000000E+00   0.00000000000000E+00
     -6.77510732897751E-10   2.63432588006403E-10  -4.14078144891348E-10  -4.26312980685809E-14   4.31936125575985E-01
      2.15235338157944E-07   5.68063659188677E-01   4.31936125575985E-01   2.15235338157944E-07   5.68063659188677E-01
      4.31936125575985E-01   2.15235338157944E-07   5.68063659188677E-01
      9.00000000000000E-02
      3.00000000000000E+01   3.00000000000000E+01   0.00000000000000E+00   0.00000000000000E+00   1.05645028160380E-10
      1.01131902417213E-12   1.06656347184552E-10   2.15782675532590E-14   3.00000000000000E+01   3.00000000000000E+01
      0.00000000000000E+00   0.00000000000000E+00   2.67518637835059E-10  -2.54383492679902E-12   2.64974802908260E-10
      2.15265352188271E-14   2.73000000000000E+01   2.73000000000000E+01   0.00000000000000E+00   0.00000000000000E+00
     -6.01178228810132E-10   2.29547078717324E-10  -3.71631150092807E-10  -4.31048027720862E-14   4.31936125575985E-01
      2.15235338157944E-07   5.68063659188677E-01   4.31936125575985E-01   2.15235338157944E-07   5.68063659188677E-01
      4.31936125575985E-01   2.15235338157944E-07   5.68063659188677E-01
      9.30000000000000E-02
      3.00000000000000E+01   3.00000000000000E+01   0.00000000000000E+00   0.00000000000000E+00   4.59967035444284E-12
      4.41259696408881E-13   5.04093005085172E-12   2.18096213269257E-14   3.00000000000000E+01   3.00000000000000E+01
      0.00000000000000E+00   0.00000000000000E+00   5.58264169559871E-11  -4.77756333050938E-13   5.53486606229362E-11
      2.17593923241469E-14   2.72100000000000E+01   2.72100000000000E+01   0.00000000000000E+00   0.00000000000000E+00
     -9.66300538238953E-11   3.62404631501074E-11  -6.03895906737879E-11  -4.35690136510726E-14   4.31936125575985E-01
      2.15235338157944E-07   5.68063659188677E-01   4.31936125575985E-01   2.15235338157944E-07   5.68063659188677E-01
      4.31936125575985E-01   2.15235338157944E-07   5.68063659188677E-01
      9.60000000000000E-02
      3.00000000000000E+01   3.00000000000000E+01   0.00000000000000E+00   0.00000000000000E+00   2.82961319928994E-12
     -8.23102388831712E-16   2.82879009690111E-12   2.20390719722599E-14   3.00000000000000E+01   3.00000000000000E+01
      0.00000000000000E+00   0.00000000000000E+00   1.10316282842218E-12  -2.70861174195506E-19   1.10316255756101E-12
      2.19902721874773E-14   2.71200000000000E+01   2.71200000000000E+01   0.00000000000000E+00   0.00000000000000E+00
     -5.07853965922510E-12   1.14658700476298E-12  -3.93195265446212E-12  -4.40293441597372E-14   4.31936125575985E-01
      2.15235338157944E-07   5.68063659188677E-01   4.31936125575985E-01   2.15235338157944E-07   5.68063659188677E-01
      4.31936125575985E-01   2.15235338157944E-07   5.68063659188677E-01
      9.90000000000000E-02
      3.00000000000000E+01   3.00000000000000E+01   0.00000000000000E+00   0.00000000000000E+00   1.19314452273347E-12