DF-ISE text

Info {
  version   = 1.0
  type      = xyplot
  datasets  = [
    "time"
    "cathode OuterVoltage" "cathode InnerVoltage" "cathode QuasiFermiPotential" "cathode DisplacementCurrent" "cathode eCurrent"
    "cathode hCurrent" "cathode TotalCurrent" "cathode Charge" "cathode1 OuterVoltage" "cathode1 InnerVoltage"
    "cathode1 QuasiFermiPotential" "cathode1 DisplacementCurrent" "cathode1 eCurrent" "cathode1 hCurrent" "cathode1 TotalCurrent"
    "cathode1 Charge" "anode OuterVoltage" "anode InnerVoltage" "anode QuasiFermiPotential" "anode DisplacementCurrent"
    "anode eCurrent" "anode hCurrent" "anode TotalCurrent" "anode Charge" "LayerStack(Window1) R_TE"
    "LayerStack(Window1) T_TE" "LayerStack(Window1) A_TE" "LayerStack(Window1) R_TM" "LayerStack(Window1) T_TM" "LayerStack(Window1) A_TM"
    "LayerStack(Window1) R_Total" "LayerStack(Window1) T_Total" "LayerStack(Window1) A_Total" ]
  functions = [
    Time
    OuterVoltage InnerVoltage QuasiFermiPotential DisplacementCurrent eCurrent
    hCurrent TotalCurrent Charge OuterVoltage InnerVoltage
    QuasiFermiPotential DisplacementCurrent eCurrent hCurrent TotalCurrent
    Charge OuterVoltage InnerVoltage QuasiFermiPotential DisplacementCurrent
    eCurrent hCurrent TotalCurrent Charge R_TE
    T_TE A_TE R_TM T_TM A_TM
    R_Total T_Total A_Total ]
}

Data {
      0.00000000000000E+00
      3.00000000000000E+01   3.00000000000000E+01   0.00000000000000E+00   0.00000000000000E+00   1.15492668205608E-13
     -1.15492668205608E-13   0.00000000000000E+00   8.72193266104536E-14   3.00000000000000E+01   3.00000000000000E+01
      0.00000000000000E+00   0.00000000000000E+00   6.87956548292022E-15  -6.87956548292022E-15   0.00000000000000E+00
      9.61392058155208E-14   3.00000000000000E+01   3.00000000000000E+01   0.00000000000000E+00   0.00000000000000E+00
      2.22803443535093E-12  -2.22803443535093E-12   3.37528498695747E-27  -2.18354135001789E-13   4.31936125575984E-01
      2.15235338157945E-07   5.68063659188678E-01   4.31936125575984E-01   2.15235338157945E-07   5.68063659188678E-01
      4.31936125575984E-01   2.15235338157945E-07   5.68063659188678E-01
      0.00000000000000E+00
      3.00000000000000E+01   3.00000000000000E+01   0.00000000000000E+00   0.00000000000000E+00   1.15492668205568E-13
     -1.15492668205608E-13  -3.99892162712578E-26   1.14738051665434E-14   3.00000000000000E+01   3.00000000000000E+01
      0.00000000000000E+00   0.00000000000000E+00   6.87956548451086E-15  -6.87956548292022E-15   1.59064013209209E-24
      1.17000383021211E-14   3.00000000000000E+01   3.00000000000000E+01   0.00000000000000E+00   0.00000000000000E+00
      2.22803443534938E-12  -2.22803443535095E-12  -1.56992942955859E-24  -2.31738434686646E-14   4.31936125575984E-01
      2.15235338157945E-07   5.68063659188678E-01   4.31936125575984E-01   2.15235338157945E-07   5.68063659188678E-01
      4.31936125575984E-01   2.15235338157945E-07   5.68063659188678E-01
      0.00000000000000E+00
      3.00000000000000E+01   3.00000000000000E+01   0.00000000000000E+00   0.00000000000000E+00   1.05424577327736E-12
     -1.29013009781466E-16   1.05411676026758E-12   1.14737948902880E-14   3.00000000000000E+01   3.00000000000000E+01
      0.00000000000000E+00   0.00000000000000E+00   9.07185911074894E-13  -3.23927569138023E-17   9.07153518317980E-13
      1.17000098249580E-14   3.00000000000000E+01   3.00000000000000E+01   0.00000000000000E+00   0.00000000000000E+00
     -1.93897637689112E-12  -2.22939016940988E-14  -1.96127027858522E-12  -2.31738047152459E-14   4.31936125575984E-01
      2.15235338157945E-07   5.68063659188678E-01   4.31936125575984E-01   2.15235338157945E-07   5.68063659188678E-01
      4.31936125575984E-01   2.15235338157945E-07   5.68063659188678E-01
      3.00000000000000E-03
      3.00000000000000E+01   3.00000000000000E+01   0.00000000000000E+00   0.00000000000000E+00   1.04308509876194E-10
      1.65111594923565E-15   1.04310160992143E-10   1.19824341715024E-14   3.00000000000000E+01   3.00000000000000E+01
      0.00000000000000E+00   0.00000000000000E+00   9.33880845073995E-14   1.17166473920793E-15   9.45597492466074E-14
      1.22082863197510E-14   2.99100000000000E+01   2.99100000000000E+01   0.00000000000000E+00   0.00000000000000E+00
     -1.99866974033009E-10   9.54622532916184E-11  -1.04404720741391E-10  -2.41907204912534E-14   4.31936125575984E-01
      2.15235338157945E-07   5.68063659188678E-01   4.31936125575984E-01   2.15235338157945E-07   5.68063659188678E-01
      4.31936125575984E-01   2.15235338157945E-07   5.68063659188678E-01
      6.00000000000000E-03
      3.00000000000000E+01   3.00000000000000E+01   0.00000000000000E+00   0.00000000000000E+00   7.23816827614743E-11
      2.20509236783331E-15   7.23838878538421E-11   1.24461915489887E-14   3.00000000000000E+01   3.00000000000000E+01
      0.00000000000000E+00   0.00000000000000E+00   2.22475002634664E-11   2.83282892894320E-16   2.22477835463593E-11
      1.26694872261226E-14   2.98200000000000E+01   2.98200000000000E+01   0.00000000000000E+00   0.00000000000000E+00
     -1.70533378293036E-10   7.59017068928572E-11  -9.46316714001788E-11  -2.51156787751113E-14   4.31936125575984E-01
      2.15235338157945E-07   5.68063659188678E-01   4.31936125575984E-01   2.15235338157945E-07   5.68063659188678E-01
      4.31936125575984E-01   2.15235338157945E-07   5.68063659188678E-01
      9.00000000000000E-03
      3.00000000000000E+01   3.00000000000000E+01   0.00000000000000E+00   0.00000000000000E+00   1.21838588301169E-12
     -1.79118859147292E-17   1.21836797112578E-12   1.28244054373332E-14   3.00000000000000E+01   3.00000000000000E+01
      0.00000000000000E+00   0.00000000000000E+00   8.49180381081098E-12   4.08881585958568E-18   8.49180789962684E-12
      1.30578482492779E-14   2.97300000000000E+01   2.97300000000000E+01   0.00000000000000E+00   0.00000000000000E+00
     -1.71799275716831E-11   7.46975170092486E-12  -9.71017587075824E-12  -2.58822536866111E-14   4.31936125575984E-01
      2.15235338157945E-07   5.68063659188678E-01   4.31936125575984E-01   2.15235338157945E-07   5.68063659188678E-01
      4.31936125575984E-01   2.15235338157945E-07   5.68063659188678E-01
      1.20000000000000E-02
      3.00000000000000E+01   3.00000000000000E+01   0.00000000000000E+00   0.00000000000000E+00   1.09393854249674E-12
     -1.05579201699885E-19   1.09393843691754E-12   1.31940877630904E-14   3.00000000000000E+01   3.00000000000000E+01
      0.00000000000000E+00   0.00000000000000E+00   9.48078069212324E-13   1.97543336185186E-21   9.48078071187758E-13
      1.34256080530989E-14   2.96400000000000E+01   2.96400000000000E+01   0.00000000000000E+00   0.00000000000000E+00
     -2.05145190784280E-12   9.43539973750321E-15  -2.04201650810530E-12  -2.66196958161893E-14   4.31936125575984E-01
      2.15235338157945E-07   5.68063659188678E-01   4.31936125575984E-01   2.15235338157945E-07   5.68063659188678E-01
      4.31936125575984E-01   2.15235338157945E-07   5.68063659188678E-01
      1.50000000000000E-02
      3.00000000000000E+01   3.00000000000000E+01   0.00000000000000E+00   0.00000000000000E+00   1.10155164790031E-12
     -7.92053823883425E-24   1.10155164789239E-12   1.35629301216292E-14   3.00000000000000E+01   3.00000000000000E+01
      0.00000000000000E+00   0.00000000000000E+00   9.54966600821189E-13  -6.92694190820781E-24   9.54966600814262E-13
      1.37923934921948E-14   2.95500000000000E+01   2.95500000000000E+01   0.00000000000000E+00   0.00000000000000E+00
     -2.06414974405031E-12   7.63149534366632E-15  -2.05651824870664E-12  -2.73553236138240E-14   4.31936125575984E-01
      2.15235338157945E-07   5.68063659188678E-01   4.31936125575984E-01   2.15235338157945E-07   5.68063659188678E-01
      4.31936125575984E-01   2.15235338157945E-07   5.68063659188678E-01
      1.80000000000000E-02
      3.00000000000000E+01   3.00000000000000E+01   0.00000000000000E+00   0.00000000000000E+00   1.11003381964893E-12
     -5.29527114930361E-23   1.11003381959597E-12   1.39304108903777E-14   3.00000000000000E+01   3.00000000000000E+01
      0.00000000000000E+00   0.00000000000000E+00   9.62598001963256E-13  -1.97700000654281E-24   9.62598001961279E-13
      1.41577607346209E-14   2.94600000000000E+01   2.94600000000000E+01   0.00000000000000E+00   0.00000000000000E+00
     -2.08127398587919E-12   8.64216432193644E-15  -2.07263182155725E-12  -2.80881716249987E-14   4.31936125575984E-01
      2.15235338157945E-07   5.68063659188678E-01   4.31936125575984E-01   2.15235338157945E-07   5.68063659188678E-01
      4.31936125575984E-01   2.15235338157945E-07   5.68063659188678E-01
      2.10000000000000E-02
      3.00000000000000E+01   3.00000000000000E+01   0.00000000000000E+00   0.00000000000000E+00   1.11918311091352E-12
     -1.40109189722415E-22   1.11918311077341E-12   1.42952969833729E-14   3.00000000000000E+01   3.00000000000000E+01
      0.00000000000000E+00   0.00000000000000E+00   9.70769850496377E-13  -1.63444327145733E-23   9.70769850480033E-13
      1.45204016734451E-14   2.93700000000000E+01   2.93700000000000E+01   0.00000000000000E+00   0.00000000000000E+00
     -2.10236155536991E-12   1.24085941164665E-14  -2.08995296125345E-12  -2.88156986568180E-14   4.31936125575984E-01
      2.15235338157945E-07   5.68063659188678E-01   4.31936125575984E-01   2.15235338157945E-07   5.68063659188678E-01
      4.31936125575984E-01   2.15235338157945E-07   5.68063659188678E-01
      2.40000000000000E-02
      3.00000000000000E+01   3.00000000000000E+01   0.00000000000000E+00   0.00000000000000E+00   1.12888195380873E-12
     -5.55872345361365E-22   1.12888195325286E-12   1.46549148150348E-14   3.00000000000000E+01   3.00000000000000E+01
      0.00000000000000E+00   0.00000000000000E+00   9.79369201284042E-13  -3.18265863227315E-23   9.79369201252215E-13
      1.48773681288541E-14   2.92800000000000E+01   2.92800000000000E+01   0.00000000000000E+00   0.00000000000000E+00
     -2.12200838911499E-12   1.37572346099272E-14  -2.10825115450507E-12  -2.95322829438890E-14   4.31936125575984E-01
      2.15235338157945E-07   5.68063659188678E-01   4.31936125575984E-01   2.15235338157945E-07   5.68063659188678E-01
      4.31936125575984E-01   2.15235338157945E-07   5.68063659188678E-01
      2.70000000000000E-02
      3.00000000000000E+01   3.00000000000000E+01   0.00000000000000E+00   0.00000000000000E+00   1.13891658399469E-12
      4.05482912930844E-18   1.13892063882382E-12   1.50040084474307E-14   3.00000000000000E+01   3.00000000000000E+01
      0.00000000000000E+00   0.00000000000000E+00   9.88224061356025E-13   1.41977444430834E-19   9.88224203333469E-13
      1.52238315801303E-14   2.91900000000000E+01   2.91900000000000E+01   0.00000000000000E+00   0.00000000000000E+00
     -2.13815164718509E-12   1.10068050278485E-14  -2.12714484215724E-12  -3.02278400275609E-14   4.31936125575984E-01
      2.15235338157945E-07   5.68063659188678E-01   4.31936125575984E-01   2.15235338157945E-07   5.68063659188678E-01
      4.31936125575984E-01   2.15235338157945E-07   5.68063659188678E-01
      3.00000000000000E-02
      3.00000000000000E+01   3.00000000000000E+01   0.00000000000000E+00   0.00000000000000E+00   1.14887741874415E-12
      8.55852628848143E-19   1.14887827459678E-12   1.53416045494347E-14   3.00000000000000E+01   3.00000000000000E+01
      0.00000000000000E+00   0.00000000000000E+00   9.97102760474296E-13  -2.59835317686204E-20   9.97102734490764E-13
      1.55591778801679E-14   2.91000000000000E+01   2.91000000000000E+01   0.00000000000000E+00   0.00000000000000E+00
     -2.15297720206928E-12   6.99619298171865E-15  -2.14598100908756E-12  -3.09007824296026E-14   4.31936125575984E-01
      2.15235338157945E-07   5.68063659188678E-01   4.31936125575984E-01   2.15235338157945E-07   5.68063659188678E-01
      4.31936125575984E-01   2.15235338157945E-07   5.68063659188678E-01
      3.30000000000000E-02
      3.00000000000000E+01   3.00000000000000E+01   0.00000000000000E+00   0.00000000000000E+00   1.15898559123373E-12
      3.36761515032708E-24   1.15898559123710E-12   1.56762561590257E-14   3.00000000000000E+01   3.00000000000000E+01
      0.00000000000000E+00   0.00000000000000E+00   1.00616492697276E-12   3.07301902204273E-24   1.00616492697584E-12
      1.58913900759232E-14   2.90100000000000E+01   2.90100000000000E+01   0.00000000000000E+00   0.00000000000000E+00
     -2.17201471769326E-12   6.86419948031333E-15  -2.16515051821294E-12  -3.15676462349490E-14   4.31936125575984E-01
      2.15235338157945E-07   5.68063659188678E-01   4.31936125575984E-01   2.15235338157945E-07   5.68063659188678E-01
      4.31936125575984E-01   2.15235338157945E-07   5.68063659188678E-01
      3.60000000000000E-02
      3.00000000000000E+01   3.00000000000000E+01   0.00000000000000E+00   0.00000000000000E+00   1.16953147019311E-12
      6.94852809957106E-24   1.16953147020006E-12   1.60102790138182E-14   3.00000000000000E+01   3.00000000000000E+01
      0.00000000000000E+00   0.00000000000000E+00   1.01558784827597E-12   5.22367229113888E-24   1.01558784828120E-12
      1.62224651963247E-14   2.89200000000000E+01   2.89200000000000E+01   0.00000000000000E+00   0.00000000000000E+00
     -2.19322041324494E-12   8.10109476369280E-15  -2.18511931848125E-12  -3.22327442101430E-14   4.31936125575984E-01
      2.15235338157945E-07   5.68063659188678E-01   4.31936125575984E-01   2.15235338157945E-07   5.68063659188678E-01
      4.31936125575984E-01   2.15235338157945E-07   5.68063659188678E-01
      3.90000000000000E-02
      3.00000000000000E+01   3.00000000000000E+01   0.00000000000000E+00   0.00000000000000E+00   1.18051696984168E-12
      2.14088600635614E-24   1.18051696984382E-12   1.63436835426481E-14   3.00000000000000E+01   3.00000000000000E+01
      0.00000000000000E+00   0.00000000000000E+00   1.02538096811146E-12   1.07755045123619E-24   1.02538096811254E-12
      1.65519943404968E-14   2.88300000000000E+01   2.88300000000000E+01   0.00000000000000E+00   0.00000000000000E+00
     -2.21418698735297E-12   8.28904939661079E-15  -2.20589793795636E-12  -3.28956778831449E-14   4.31936125575984E-01
      2.15235338157945E-07   5.68063659188678E-01   4.31936125575984E-01   2.15235338157945E-07   5.68063659188678E-01
      4.31936125575984E-01   2.15235338157945E-07   5.68063659188678E-01
      4.20000000000000E-02
      3.00000000000000E+01   3.00000000000000E+01   0.00000000000000E+00   0.00000000000000E+00   1.19203439984258E-12
     -2.55297467646678E-23   1.19203439981705E-12   1.66764175075939E-14   3.00000000000000E+01   3.00000000000000E+01
      0.00000000000000E+00   0.00000000000000E+00   1.03562865222531E-12  -1.28565518631551E-25   1.03562865222518E-12
      1.68801072629748E-14   2.87400000000000E+01   2.87400000000000E+01   0.00000000000000E+00   0.00000000000000E+00
     -2.23722725911595E-12   9.56420707372691E-15  -2.22766305204222E-12  -3.35565247705686E-14   4.31936125575984E-01
      2.15235338157945E-07   5.68063659188678E-01   4.31936125575984E-01   2.15235338157945E-07   5.68063659188678E-01
      4.31936125575984E-01   2.15235338157945E-07   5.68063659188678E-01
      4.50000000000000E-02
      3.00000000000000E+01   3.00000000000000E+01   0.00000000000000E+00   0.00000000000000E+00   1.20412423937487E-12
     -8.45191633357412E-22   1.20412423852967E-12   1.70083585561624E-14   3.00000000000000E+01   3.00000000000000E+01
      0.00000000000000E+00   0.00000000000000E+00   1.04640859846994E-12   3.33138007032728E-22   1.04640859880307E-12
      1.72073425737966E-14   2.86500000000000E+01   2.86500000000000E+01   0.00000000000000E+00   0.00000000000000E+00
     -2.26254887197905E-12   1.20160346463035E-14  -2.25053283733275E-12  -3.42157011299589E-14   4.31936125575984E-01
      2.15235338157945E-07   5.68063659188678E-01   4.31936125575984E-01   2.15235338157945E-07   5.68063659188678E-01
      4.31936125575984E-01   2.15235338157945E-07   5.68063659188678E-01
      4.80000000000000E-02
      3.00000000000000E+01   3.00000000000000E+01   0.00000000000000E+00   0.00000000000000E+00   1.21680759802157E-12
     -9.62380994567771E-21   1.21680758839776E-12   1.73390651831654E-14   3.00000000000000E+01   3.00000000000000E+01
      0.00000000000000E+00   0.00000000000000E+00   1.05776610360728E-12  -9.19755460273215E-21   1.05776609440973E-12
      1.75336859039432E-14   2.85600000000000E+01   2.85600000000000E+01   0.00000000000000E+00   0.00000000000000E+00
     -2.28170824267812E-12   7.13455987063902E-15  -2.27457368280749E-12  -3.48727510871086E-14   4.31936125575984E-01
      2.15235338157945E-07   5.68063659188678E-01   4.31936125575984E-01   2.15235338157945E-07   5.68063659188678E-01
      4.31936125575984E-01   2.15235338157945E-07   5.68063659188678E-01
      5.10000000000000E-02
      3.00000000000000E+01   3.00000000000000E+01   0.00000000000000E+00   0.00000000000000E+00   1.23065265610739E-12
     -5.76298536232225E-19   1.23065207980886E-12   1.76671787714652E-14   3.00000000000000E+01   3.00000000000000E+01
      0.00000000000000E+00   0.00000000000000E+00   1.06945587132967E-12  -2.32919411529758E-19   1.06945563841026E-12
      1.78588254909900E-14   2.84700000000000E+01   2.84700000000000E+01   0.00000000000000E+00   0.00000000000000E+00
     -2.31633383855082E-12   1.62261203316926E-14  -2.30010771821913E-12  -3.55260042624552E-14   4.31936125575984E-01
      2.15235338157945E-07   5.68063659188678E-01   4.31936125575984E-01   2.15235338157945E-07   5.68063659188678E-01
      4.31936125575984E-01   2.15235338157945E-07   5.68063659188678E-01
      5.40000000000000E-02
      3.00000000000000E+01   3.00000000000000E+01   0.00000000000000E+00   0.00000000000000E+00   1.30423656798817E-12
      8.77234429544413E-15   1.31300891228362E-12   1.79911995106597E-14   3.00000000000000E+01   3.00000000000000E+01
      0.00000000000000E+00   0.00000000000000E+00   1.38526386797789E-12   1.02923793796392E-14   1.39555624735753E-12
      1.81822179326962E-14   2.83800000000000E+01   2.83800000000000E+01   0.00000000000000E+00   0.00000000000000E+00
     -3.02470112595974E-12   3.16135966318588E-13  -2.70856515964115E-12  -3.61734174433559E-14   4.31936125575984E-01
      2.15235338157945E-07   5.68063659188678E-01   4.31936125575984E-01   2.15235338157945E-07   5.68063659188678E-01
      4.31936125575984E-01   2.15235338157945E-07   5.68063659188678E-01
      5.70000000000000E-02
      3.00000000000000E+01   3.00000000000000E+01   0.00000000000000E+00   0.00000000000000E+00   1.30320024459600E-12
      5.91004198478717E-14   1.36230066444388E-12   1.83124428953895E-14   3.00000000000000E+01   3.00000000000000E+01
      0.00000000000000E+00   0.00000000000000E+00   1.56861948523878E-12   9.49791349742583E-14   1.66359862021303E-12
      1.85031001584435E-14   2.82900000000000E+01   2.82900000000000E+01   0.00000000000000E+00   0.00000000000000E+00
     -3.45968183057846E-12   4.33782545921796E-13  -3.02589928465666E-12  -3.68155430538330E-14   4.31936125575984E-01
      2.15235338157945E-07   5.68063659188678E-01   4.31936125575984E-01   2.15235338157945E-07   5.68063659188678E-01
      4.31936125575984E-01   2.15235338157945E-07   5.68063659188678E-01
      6.00000000000000E-02
      3.00000000000000E+01   3.00000000000000E+01   0.00000000000000E+00   0.00000000000000E+00   1.50903417473552E-12
      3.33694014326650E-13   1.84272818906217E-12   1.86305961513209E-14   3.00000000000000E+01   3.00000000000000E+01
      0.00000000000000E+00   0.00000000000000E+00   1.50783372306303E-12   5.54223626152919E-13   2.06205734921595E-12
      1.88203665450391E-14   2.82000000000000E+01   2.82000000000000E+01   0.00000000000000E+00   0.00000000000000E+00
     -4.37874382017315E-12   4.73958281896238E-13  -3.90478553827691E-12  -3.74509626963599E-14   4.31936125575984E-01
      2.15235338157945E-07   5.68063659188678E-01   4.31936125575984E-01   2.15235338157945E-07   5.68063659188678E-01
      4.31936125575984E-01   2.15235338157945E-07   5.68063659188678E-01
      6.30000000000000E-02
      3.00000000000000E+01   3.00000000000000E+01   0.00000000000000E+00   0.00000000000000E+00   2.43610670276859E-12
      1.57210531908922E-12   4.00821202185782E-12   1.89441697532557E-14   3.00000000000000E+01   3.00000000000000E+01
      0.00000000000000E+00   0.00000000000000E+00   5.26783271974487E-12   6.89004889941258E-12   1.21578816191574E-11
      1.91315065337151E-14   2.81100000000000E+01   2.81100000000000E+01   0.00000000000000E+00   0.00000000000000E+00
     -1.99031458699065E-11   3.73705222889670E-12  -1.61660936410098E-11  -3.80756762869707E-14   4.31936125575984E-01
      2.15235338157945E-07   5.68063659188678E-01   4.31936125575984E-01   2.15235338157945E-07   5.68063659188678E-01
      4.31936125575984E-01   2.15235338157945E-07   5.68063659188678E-01
      6.60000000000000E-02
      3.00000000000000E+01   3.00000000000000E+01   0.00000000000000E+00   0.00000000000000E+00   6.25445527616103E-12
      6.42393316299825E-12   1.26783884391593E-11   1.92502612556485E-14   3.00000000000000E+01   3.00000000000000E+01
      0.00000000000000E+00   0.00000000000000E+00   1.95642928621192E-11   2.75702986145883E-11   4.71345914767075E-11
      1.94310596990537E-14   2.80200000000000E+01   2.80200000000000E+01   0.00000000000000E+00   0.00000000000000E+00
     -7.60691085343107E-11   1.62561286184436E-11  -5.98129799158671E-11  -3.86813209547023E-14   4.31936125575984E-01
      2.15235338157945E-07   5.68063659188678E-01   4.31936125575984E-01   2.15235338157945E-07   5.68063659188678E-01
      4.31936125575984E-01   2.15235338157945E-07   5.68063659188678E-01
      6.90000000000000E-02
      3.00000000000000E+01   3.00000000000000E+01   0.00000000000000E+00   0.00000000000000E+00   2.72277568939613E-11
      4.16351426445476E-11   6.88628995385089E-11   1.95454432723187E-14   3.00000000000000E+01   3.00000000000000E+01
      0.00000000000000E+00   0.00000000000000E+00   3.98200157156468E-11   5.54510685125837E-11   9.52710842282305E-11
      1.97139758854553E-14   2.79300000000000E+01   2.79300000000000E+01   0.00000000000000E+00   0.00000000000000E+00
     -2.07183213012830E-10   4.30492292460944E-11  -1.64133983766735E-10  -3.92594191577741E-14   4.31936125575984E-01
      2.15235338157945E-07   5.68063659188678E-01   4.31936125575984E-01   2.15235338157945E-07   5.68063659188678E-01
      4.31936125575984E-01   2.15235338157945E-07   5.68063659188678E-01
      7.20000000000000E-02
      3.00000000000000E+01   3.00000000000000E+01   0.00000000000000E+00   0.00000000000000E+00   3.70785208841263E-11
      8.43465061168421E-11   1.21425027000968E-10   1.98322090988403E-14   3.00000000000000E+01   3.00000000000000E+01
      0.00000000000000E+00   0.00000000000000E+00   4.81065472974192E-11   6.64147358507476E-11   1.14521283148167E-10
      1.99850913749206E-14   2.78400000000000E+01   2.78400000000000E+01   0.00000000000000E+00   0.00000000000000E+00
     -2.88474262057278E-10   5.25279519081437E-11  -2.35946310149135E-10  -3.98173004737608E-14   4.31936125575984E-01
      2.15235338157945E-07   5.68063659188678E-01   4.31936125575984E-01   2.15235338157945E-07   5.68063659188678E-01
      4.31936125575984E-01   2.15235338157945E-07   5.68063659188678E-01
      7.50000000000000E-02
      3.00000000000000E+01   3.00000000000000E+01   0.00000000000000E+00   0.00000000000000E+00   2.24225554704405E-11
      5.47828529031556E-11   7.72054083735960E-11   2.01153236369832E-14   3.00000000000000E+01   3.00000000000000E+01
      0.00000000000000E+00   0.00000000000000E+00   5.30514469335467E-11   5.24006892567372E-11   1.05452136190284E-10
      2.02513130839418E-14   2.77500000000000E+01   2.77500000000000E+01   0.00000000000000E+00   0.00000000000000E+00
     -2.28243389811801E-10   4.55858452479203E-11  -1.82657544563881E-10  -4.03666367209249E-14   4.31936125575984E-01
      2.15235338157945E-07   5.68063659188678E-01   4.31936125575984E-01   2.15235338157945E-07   5.68063659188678E-01
      4.31936125575984E-01   2.15235338157945E-07   5.68063659188678E-01
      7.80000000000000E-02
      3.00000000000000E+01   3.00000000000000E+01   0.00000000000000E+00   0.00000000000000E+00   1.53322043127865E-11
      1.96902716768250E-11   3.50224759896116E-11   2.03956320119114E-14   3.00000000000000E+01   3.00000000000000E+01
      0.00000000000000E+00   0.00000000000000E+00   6.11303569548393E-11   4.48729690765845E-12   6.56176538624978E-11
      2.05146259597986E-14   2.76600000000000E+01   2.76600000000000E+01   0.00000000000000E+00   0.00000000000000E+00
     -1.50791812721785E-10   5.01516828696754E-11  -1.00640129852110E-10  -4.09102579717101E-14   4.31936125575984E-01
      2.15235338157945E-07   5.68063659188678E-01   4.31936125575984E-01   2.15235338157945E-07   5.68063659188678E-01
      4.31936125575984E-01   2.15235338157945E-07   5.68063659188678E-01
      8.10000000000000E-02
      3.00000000000000E+01   3.00000000000000E+01   0.00000000000000E+00   0.00000000000000E+00   4.78358584165435E-11
      2.53802968458618E-12   5.03738881011297E-11   2.06701259582666E-14   3.00000000000000E+01   3.00000000000000E+01
      0.00000000000000E+00   0.00000000000000E+00   9.99872188132973E-11  -5.99949310059883E-13   9.93872695032374E-11
      2.07748016804641E-14   2.75700000000000E+01   2.75700000000000E+01   0.00000000000000E+00   0.00000000000000E+00
     -2.48127322221730E-10   9.83661646173634E-11  -1.49761157604367E-10  -4.14449276387305E-14   4.31936125575984E-01
      2.15235338157945E-07   5.68063659188678E-01   4.31936125575984E-01   2.15235338157945E-07   5.68063659188678E-01
      4.31936125575984E-01   2.15235338157945E-07   5.68063659188678E-01
      8.40000000000000E-02
      3.00000000000000E+01   3.00000000000000E+01   0.00000000000000E+00   0.00000000000000E+00   5.31893000306149E-12
      1.33566955519538E-13   5.45249695858103E-12   2.09297140298370E-14   3.00000000000000E+01   3.00000000000000E+01
      0.00000000000000E+00   0.00000000000000E+00   1.54275439758082E-10  -8.87258114198560E-13   1.53388181643884E-10
      2.10305596023934E-14   2.74800000000000E+01   2.74800000000000E+01   0.00000000000000E+00   0.00000000000000E+00
     -2.61357333216067E-10   1.02516654613602E-10  -1.58840678602464E-10  -4.19602736322304E-14   4.31936125575984E-01
      2.15235338157945E-07   5.68063659188678E-01   4.31936125575984E-01   2.15235338157945E-07   5.68063659188678E-01
      4.31936125575984E-01   2.15235338157945E-07   5.68063659188678E-01
      8.70000000000000E-02
      3.00000000000000E+01   3.00000000000000E+01   0.00000000000000E+00   0.00000000000000E+00   1.59623284185969E-12
      4.74896288128129E-14   1.64372247067251E-12   2.11764885091123E-14   3.00000000000000E+01   3.00000000000000E+01
      0.00000000000000E+00   0.00000000000000E+00   1.95052986265078E-10  -1.71342661463696E-12   1.93339559650441E-10
      2.12792025286775E-14   2.73900000000000E+01   2.73900000000000E+01   0.00000000000000E+00   0.00000000000000E+00
     -3.17122726406724E-10   1.22139444285610E-10  -1.94983282121114E-10  -4.24556910377898E-14   4.31936125575984E-01
      2.15235338157945E-07   5.68063659188678E-01   4.31936125575984E-01   2.15235338157945E-07   5.68063659188678E-01
      4.31936125575984E-01   2.15235338157945E-07   5.68063659188678E-01
      9.00000000000000E-02
      3.00000000000000E+01   3.00000000000000E+01   0.00000000000000E+00   0.00000000000000E+00   1.55226468362248E-12
      1.63250304468283E-14   1.56858971406931E-12   2.14211274028902E-14   3.00000000000000E+01   3.00000000000000E+01
      0.00000000000000E+00   0.00000000000000E+00   1.26457566330007E-10  -1.14267260474783E-12   1.25314893725259E-10
      2.15159269030749E-14   2.73000000000000E+01   2.73000000000000E+01   0.00000000000000E+00   0.00000000000000E+00
     -2.04589329082508E-10   7.77058456431800E-11  -1.26883483439328E-10  -4.29370543059651E-14   4.31936125575984E-01
      2.15235338157945E-07   5.68063659188678E-01   4.31936125575984E-01   2.15235338157945E-07   5.68063659188678E-01
      4.31936125575984E-01   2.15235338157945E-07   5.68063659188678E-01
      9.30000000000000E-02
      3.00000000000000E+01   3.00000000000000E+01   0.00000000000000E+00   0.00000000000000E+00   1.52174806213571E-12
      9.31001268610638E-15   1.53105807482182E-12   2.16654645581912E-14   3.00000000000000E+01   3.00000000000000E+01
      0.00000000000000E+00   0.00000000000000E+00   2.69719647488473E-12   2.42641600771169E-13   2.93983807565589E-12
      2.17429977102109E-14   2.72100000000000E+01   2.72100000000000E+01   0.00000000000000E+00   0.00000000000000E+00
     -5.28812606339061E-12   8.17229912912920E-13  -4.47089615047769E-12  -4.34084622684019E-14   4.31936125575984E-01
      2.15235338157945E-07   5.68063659188678E-01   4.31936125575984E-01   2.15235338157945E-07   5.68063659188678E-01
      4.31936125575984E-01   2.15235338157945E-07   5.68063659188678E-01
      9.60000000000000E-02
      3.00000000000000E+01   3.00000000000000E+01   0.00000000000000E+00   0.00000000000000E+00   1.51688739570459E-12
     -8.58270025019819E-16   1.51602912567957E-12   2.19094279990915E-14   3.00000000000000E+01   3.00000000000000E+01
      0.00000000000000E+00   0.00000000000000E+00   1.22723747365588E-12   8.52885967939646E-15   1.23576633333527E-12
      2.19681599847196E-14   2.71200000000000E+01   2.71200000000000E+01   0.00000000000000E+00   0.00000000000000E+00
     -1.86490557113624E-12  -8.86889887878606E-13  -2.75179545901485E-12  -4.38775879838112E-14   4.31936125575984E-01
      2.15235338157945E-07   5.68063659188678E-01   4.31936125575984E-01   2.15235338157945E-07   5.68063659188678E-01
      4.31936125575984E-01   2.15235338157945E-07   5.68063659188678E-01
      9.90000000000000E-02
      3.00000000000000E+01   3.00000000000000E+01   0.00000000000000E+00   0.00000000000000E+00   1.53957375951036E-12