DF-ISE text

Info {
  version   = 1.0
  type      = xyplot
  datasets  = [
    "time"
    "cathode OuterVoltage" "cathode InnerVoltage" "cathode QuasiFermiPotential" "cathode DisplacementCurrent" "cathode eCurrent"
    "cathode hCurrent" "cathode TotalCurrent" "cathode Charge" "cathode1 OuterVoltage" "cathode1 InnerVoltage"
    "cathode1 QuasiFermiPotential" "cathode1 DisplacementCurrent" "cathode1 eCurrent" "cathode1 hCurrent" "cathode1 TotalCurrent"
    "cathode1 Charge" "anode OuterVoltage" "anode InnerVoltage" "anode QuasiFermiPotential" "anode DisplacementCurrent"
    "anode eCurrent" "anode hCurrent" "anode TotalCurrent" "anode Charge" "LayerStack(Window1) R_TE"
    "LayerStack(Window1) T_TE" "LayerStack(Window1) A_TE" "LayerStack(Window1) R_TM" "LayerStack(Window1) T_TM" "LayerStack(Window1) A_TM"
    "LayerStack(Window1) R_Total" "LayerStack(Window1) T_Total" "LayerStack(Window1) A_Total" ]
  functions = [
    Time
    OuterVoltage InnerVoltage QuasiFermiPotential DisplacementCurrent eCurrent
    hCurrent TotalCurrent Charge OuterVoltage InnerVoltage
    QuasiFermiPotential DisplacementCurrent eCurrent hCurrent TotalCurrent
    Charge OuterVoltage InnerVoltage QuasiFermiPotential DisplacementCurrent
    eCurrent hCurrent TotalCurrent Charge R_TE
    T_TE A_TE R_TM T_TM A_TM
    R_Total T_Total A_Total ]
}

Data {
      0.00000000000000E+00
      1.00000000000000E+01   1.00000000000000E+01   0.00000000000000E+00   0.00000000000000E+00   1.43717997015176E-13
     -1.43717997015176E-13   0.00000000000000E+00   8.72193266104534E-14   1.00000000000000E+01   1.00000000000000E+01
      0.00000000000000E+00   0.00000000000000E+00   8.41633689235137E-15  -8.41633689235137E-15   0.00000000000000E+00
      9.61392058155206E-14   1.00000000000000E+01   1.00000000000000E+01   0.00000000000000E+00   0.00000000000000E+00
      2.46714563846756E-12  -2.46714563846756E-12   0.00000000000000E+00  -2.20337120188193E-13   4.32236561454428E-01
      5.48161534469377E-10   5.67763437997410E-01   4.32236561454428E-01   5.48161534469377E-10   5.67763437997410E-01
      4.32236561454428E-01   5.48161534469377E-10   5.67763437997410E-01
      0.00000000000000E+00
      1.00000000000000E+01   1.00000000000000E+01   0.00000000000000E+00   0.00000000000000E+00   1.43717997015794E-13
     -1.43717997015176E-13   6.17650783199256E-25   1.14757800288588E-14   1.00000000000000E+01   1.00000000000000E+01
      0.00000000000000E+00   0.00000000000000E+00   8.41633689251062E-15  -8.41633689235137E-15   1.59258075615075E-25
      1.17019687272731E-14   1.00000000000000E+01   1.00000000000000E+01   0.00000000000000E+00   0.00000000000000E+00
      2.46714563846678E-12  -2.46714563846758E-12  -7.91504329441526E-25  -2.31777487561323E-14   4.32236561454428E-01
      5.48161534469377E-10   5.67763437997410E-01   4.32236561454428E-01   5.48161534469377E-10   5.67763437997410E-01
      4.32236561454428E-01   5.48161534469377E-10   5.67763437997410E-01
      0.00000000000000E+00
      1.00000000000000E+01   1.00000000000000E+01   0.00000000000000E+00   0.00000000000000E+00   1.15095850626049E-12
     -1.46732474542172E-16   1.15081177378595E-12   1.14757696558734E-14   1.00000000000000E+01   1.00000000000000E+01
      0.00000000000000E+00   0.00000000000000E+00   1.01700845102388E-12  -3.67729438992233E-17   1.01697167807998E-12
      1.17019403046434E-14   1.00000000000000E+01   1.00000000000000E+01   0.00000000000000E+00   0.00000000000000E+00
     -2.12636233688070E-12  -4.14211149856207E-14  -2.16778345186632E-12  -2.31777099605167E-14   4.32236561454428E-01
      5.48161534469377E-10   5.67763437997410E-01   4.32236561454428E-01   5.48161534469377E-10   5.67763437997410E-01
      4.32236561454428E-01   5.48161534469377E-10   5.67763437997410E-01
      3.00000000000000E-03
      1.00000000000000E+01   1.00000000000000E+01   0.00000000000000E+00   0.00000000000000E+00   7.40467474668047E-12
      1.48450088785715E-16   7.40482319676926E-12   1.16471300463108E-14   1.00000000000000E+01   1.00000000000000E+01
      0.00000000000000E+00   0.00000000000000E+00   1.01566614780759E-12   8.40625425504100E-17   1.01575021035014E-12
      1.18750940909009E-14   9.97000000000000E+00   9.97000000000000E+00   0.00000000000000E+00   0.00000000000000E+00
     -1.45500475522487E-11   6.12947414512937E-12  -8.42057340711934E-12  -2.35222241372117E-14   4.32236561454428E-01
      5.48161534469377E-10   5.67763437997410E-01   4.32236561454428E-01   5.48161534469377E-10   5.67763437997410E-01
      4.32236561454428E-01   5.48161534469377E-10   5.67763437997410E-01
      6.00000000000000E-03
      1.00000000000000E+01   1.00000000000000E+01   0.00000000000000E+00   0.00000000000000E+00   2.49690253279973E-12
     -6.26826453322898E-19   2.49690190597328E-12   1.18168641775597E-14   1.00000000000000E+01   1.00000000000000E+01
      0.00000000000000E+00   0.00000000000000E+00   1.06723686859110E-12   2.40448898242947E-20   1.06723689263599E-12
      1.20444431029267E-14   9.94000000000000E+00   9.94000000000000E+00   0.00000000000000E+00   0.00000000000000E+00
     -4.90108341477275E-12   1.33694461616348E-12  -3.56413879860927E-12  -2.38613072804866E-14   4.32236561454428E-01
      5.48161534469377E-10   5.67763437997410E-01   4.32236561454428E-01   5.48161534469377E-10   5.67763437997410E-01
      4.32236561454428E-01   5.48161534469377E-10   5.67763437997410E-01
      9.00000000000000E-03
      1.00000000000000E+01   1.00000000000000E+01   0.00000000000000E+00   0.00000000000000E+00   1.17134721402800E-12
     -4.37245886523569E-22   1.17134721359075E-12   1.19843459922222E-14   1.00000000000000E+01   1.00000000000000E+01
      0.00000000000000E+00   0.00000000000000E+00   1.04055512658665E-12  -1.35144829183420E-22   1.04055512645150E-12
      1.22098381395017E-14   9.91000000000000E+00   9.91000000000000E+00   0.00000000000000E+00   0.00000000000000E+00
     -2.20912308434927E-12  -2.77925569298906E-15  -2.21190234004226E-12  -2.41941841317239E-14   4.32236561454428E-01
      5.48161534469377E-10   5.67763437997410E-01   4.32236561454428E-01   5.48161534469377E-10   5.67763437997410E-01
      4.32236561454428E-01   5.48161534469377E-10   5.67763437997410E-01
      1.20000000000000E-02
      1.00000000000000E+01   1.00000000000000E+01   0.00000000000000E+00   0.00000000000000E+00   4.33869765132388E-12
      4.64944603163830E-18   4.33870230076991E-12   1.21479907467169E-14   1.00000000000000E+01   1.00000000000000E+01
      0.00000000000000E+00   0.00000000000000E+00   1.04908977963191E-12   4.54317335563913E-22   1.04908978008623E-12
      1.23704851353975E-14   9.88000000000000E+00   9.88000000000000E+00   0.00000000000000E+00   0.00000000000000E+00
     -8.48866593453486E-12   3.10087385367874E-12  -5.38779208085613E-12  -2.45184758821143E-14   4.32236561454428E-01
      5.48161534469377E-10   5.67763437997410E-01   4.32236561454428E-01   5.48161534469377E-10   5.67763437997410E-01
      4.32236561454428E-01   5.48161534469377E-10   5.67763437997410E-01
      1.50000000000000E-02
      1.00000000000000E+01   1.00000000000000E+01   0.00000000000000E+00   0.00000000000000E+00  -1.73421435282532E-12
     -5.10003909151381E-18  -1.73421945286441E-12   1.23044011144996E-14   1.00000000000000E+01   1.00000000000000E+01
      0.00000000000000E+00   0.00000000000000E+00   1.04560231939455E-12  -4.26607449404369E-27   1.04560231939454E-12
      1.25251382644571E-14   9.85000000000000E+00   9.85000000000000E+00   0.00000000000000E+00   0.00000000000000E+00
      3.61429203863145E-12  -2.92567490516160E-12   6.88617133469845E-13  -2.48295393789566E-14   4.32236561454428E-01
      5.48161534469377E-10   5.67763437997410E-01   4.32236561454428E-01   5.48161534469377E-10   5.67763437997410E-01
      4.32236561454428E-01   5.48161534469377E-10   5.67763437997410E-01
      1.80000000000000E-02
      1.00000000000000E+01   1.00000000000000E+01   0.00000000000000E+00   0.00000000000000E+00   6.92557741000400E-12
     -6.44261655841412E-18   6.92557096738744E-12   1.24481730650222E-14   1.00000000000000E+01   1.00000000000000E+01
      0.00000000000000E+00   0.00000000000000E+00   1.07894762488280E-12   8.30941669980524E-22   1.07894762571374E-12
      1.26716309245546E-14   9.82000000000000E+00   9.82000000000000E+00   0.00000000000000E+00   0.00000000000000E+00
     -1.35624130675356E-11   5.55789447443437E-12  -8.00451859310118E-12  -2.51198039895768E-14   4.32236561454428E-01
      5.48161534469377E-10   5.67763437997410E-01   4.32236561454428E-01   5.48161534469377E-10   5.67763437997410E-01
      4.32236561454428E-01   5.48161534469377E-10   5.67763437997410E-01
      2.10000000000000E-02
      1.00000000000000E+01   1.00000000000000E+01   0.00000000000000E+00   0.00000000000000E+00   4.62818993507129E-12
     -6.38826563381072E-17   4.62812605241495E-12   1.25786228961117E-14   1.00000000000000E+01   1.00000000000000E+01
      0.00000000000000E+00   0.00000000000000E+00   1.08404878258056E-12  -1.09896365095325E-20   1.08404877159092E-12
      1.28081991895168E-14   9.79000000000000E+00   9.79000000000000E+00   0.00000000000000E+00   0.00000000000000E+00
     -9.08198455184641E-12   3.36980972784053E-12  -5.71217482400588E-12  -2.53868220856285E-14   4.32236561454428E-01
      5.48161534469377E-10   5.67763437997410E-01   4.32236561454428E-01   5.48161534469377E-10   5.67763437997410E-01
      4.32236561454428E-01   5.48161534469377E-10   5.67763437997410E-01
      2.40000000000000E-02
      1.00000000000000E+01   1.00000000000000E+01   0.00000000000000E+00   0.00000000000000E+00   1.18158174647770E-12
     -1.03314504595289E-19   1.18158164316320E-12   1.27032850711329E-14   1.00000000000000E+01   1.00000000000000E+01
      0.00000000000000E+00   0.00000000000000E+00   1.04981732420034E-12  -8.03234976494286E-26   1.04981732420026E-12
      1.29363454939943E-14   9.76000000000000E+00   9.76000000000000E+00   0.00000000000000E+00   0.00000000000000E+00
     -2.22593330037274E-12  -5.46566699072692E-15  -2.23139896736347E-12  -2.56396305651271E-14   4.32236561454428E-01
      5.48161534469377E-10   5.67763437997410E-01   4.32236561454428E-01   5.48161534469377E-10   5.67763437997410E-01
      4.32236561454428E-01   5.48161534469377E-10   5.67763437997410E-01
      2.70000000000000E-02
      1.00000000000000E+01   1.00000000000000E+01   0.00000000000000E+00   0.00000000000000E+00   1.18634308823353E-12
     -4.46752965089292E-21   1.18634308376600E-12   1.28268384086181E-14   1.00000000000000E+01   1.00000000000000E+01
      0.00000000000000E+00   0.00000000000000E+00   1.05531060288201E-12  -1.18210968629252E-27   1.05531060288201E-12
      1.30602144655697E-14   9.73000000000000E+00   9.73000000000000E+00   0.00000000000000E+00   0.00000000000000E+00
     -2.23973248541145E-12  -1.92120123656277E-15  -2.24165368664801E-12  -2.58870528741878E-14   4.32236561454428E-01
      5.48161534469377E-10   5.67763437997410E-01   4.32236561454428E-01   5.48161534469377E-10   5.67763437997410E-01
      4.32236561454428E-01   5.48161534469377E-10   5.67763437997410E-01
      3.00000000000000E-02
      1.00000000000000E+01   1.00000000000000E+01   0.00000000000000E+00   0.00000000000000E+00   1.18882277208143E-12
      4.58444489587358E-28   1.18882277208143E-12   1.29501985112603E-14   1.00000000000000E+01   1.00000000000000E+01
      0.00000000000000E+00   0.00000000000000E+00   1.05797820160518E-12  -8.94480078595209E-29   1.05797820160518E-12
      1.31830411684653E-14   9.70000000000000E+00   9.70000000000000E+00   0.00000000000000E+00   0.00000000000000E+00
     -2.24536265142458E-12  -1.43832226202802E-15  -2.24680097368661E-12  -2.61332396797256E-14   4.32236561454428E-01
      5.48161534469377E-10   5.67763437997410E-01   4.32236561454428E-01   5.48161534469377E-10   5.67763437997410E-01
      4.32236561454428E-01   5.48161534469377E-10   5.67763437997410E-01
      3.30000000000000E-02
      1.00000000000000E+01   1.00000000000000E+01   0.00000000000000E+00   0.00000000000000E+00   1.19137759976646E-12
      1.26117236683378E-28   1.19137759976646E-12   1.30734748432494E-14   1.00000000000000E+01   1.00000000000000E+01
      0.00000000000000E+00   0.00000000000000E+00   1.06040834310345E-12  -1.71436692497020E-28   1.06040834310345E-12
      1.33056629720227E-14   9.67000000000000E+00   9.67000000000000E+00   0.00000000000000E+00   0.00000000000000E+00
     -2.25011679641627E-12  -1.66914645362157E-15  -2.25178594286989E-12  -2.63791378152720E-14   4.32236561454428E-01
      5.48161534469377E-10   5.67763437997410E-01   4.32236561454428E-01   5.48161534469377E-10   5.67763437997410E-01
      4.32236561454428E-01   5.48161534469377E-10   5.67763437997410E-01
      3.60000000000000E-02
      1.00000000000000E+01   1.00000000000000E+01   0.00000000000000E+00   0.00000000000000E+00   1.19402023687808E-12
      1.38879108002428E-28   1.19402023687808E-12   1.31966718559602E-14   1.00000000000000E+01   1.00000000000000E+01
      0.00000000000000E+00   0.00000000000000E+00   1.06290455846276E-12  -4.21386294407343E-28   1.06290455846276E-12
      1.34281866931361E-14   9.64000000000000E+00   9.64000000000000E+00   0.00000000000000E+00   0.00000000000000E+00
     -2.25697332465830E-12   4.85293174520693E-17  -2.25692479534085E-12  -2.66248585490963E-14   4.32236561454428E-01
      5.48161534469377E-10   5.67763437997410E-01   4.32236561454428E-01   5.48161534469377E-10   5.67763437997410E-01
      4.32236561454428E-01   5.48161534469377E-10   5.67763437997410E-01
      3.90000000000000E-02
      1.00000000000000E+01   1.00000000000000E+01   0.00000000000000E+00   0.00000000000000E+00   1.19675136783689E-12
     -4.25466967019332E-28   1.19675136783689E-12   1.33197796466360E-14   1.00000000000000E+01   1.00000000000000E+01
      0.00000000000000E+00   0.00000000000000E+00   1.06547169599608E-12  -1.36787351039764E-28   1.06547169599608E-12
      1.35506143829048E-14   9.61000000000000E+00   9.61000000000000E+00   0.00000000000000E+00   0.00000000000000E+00
     -2.25967921186481E-12  -2.54385196816516E-15  -2.26222306383298E-12  -2.68703940295409E-14   4.32236561454428E-01
      5.48161534469377E-10   5.67763437997410E-01   4.32236561454428E-01   5.48161534469377E-10   5.67763437997410E-01
      4.32236561454428E-01   5.48161534469377E-10   5.67763437997410E-01
      4.20000000000000E-02
      1.00000000000000E+01   1.00000000000000E+01   0.00000000000000E+00   0.00000000000000E+00   1.19957155838227E-12
     -2.00950047724388E-27   1.19957155838227E-12   1.34427839532350E-14   1.00000000000000E+01   1.00000000000000E+01
      0.00000000000000E+00   0.00000000000000E+00   1.06811213404387E-12  -1.52126323555885E-28   1.06811213404387E-12
      1.36729329455439E-14   9.58000000000000E+00   9.58000000000000E+00   0.00000000000000E+00   0.00000000000000E+00
     -2.26807209378816E-12   3.88401362019013E-16  -2.26768369242614E-12  -2.71157168987789E-14   4.32236561454428E-01
      5.48161534469377E-10   5.67763437997410E-01   4.32236561454428E-01   5.48161534469377E-10   5.67763437997410E-01
      4.32236561454428E-01   5.48161534469377E-10   5.67763437997410E-01
      4.50000000000000E-02
      1.00000000000000E+01   1.00000000000000E+01   0.00000000000000E+00   0.00000000000000E+00   1.20248051259352E-12
     -2.46628485150764E-27   1.20248051259352E-12   1.35656663499580E-14   1.00000000000000E+01   1.00000000000000E+01
      0.00000000000000E+00   0.00000000000000E+00   1.07082689092874E-12  -1.60734949067849E-28   1.07082689092874E-12
      1.37951238302846E-14   9.55000000000000E+00   9.55000000000000E+00   0.00000000000000E+00   0.00000000000000E+00
     -2.27237237067188E-12  -9.35032850378481E-16  -2.27330740352226E-12  -2.73607901802426E-14   4.32236561454428E-01
      5.48161534469377E-10   5.67763437997410E-01   4.32236561454428E-01   5.48161534469377E-10   5.67763437997410E-01
      4.32236561454428E-01   5.48161534469377E-10   5.67763437997410E-01
      4.80000000000000E-02
      1.00000000000000E+01   1.00000000000000E+01   0.00000000000000E+00   0.00000000000000E+00   1.20547562917369E-12
     -4.95561016946116E-27   1.20547562917369E-12   1.36884028869914E-14   1.00000000000000E+01   1.00000000000000E+01
      0.00000000000000E+00   0.00000000000000E+00   1.07361567439055E-12  -4.43496930429412E-28   1.07361567439055E-12
      1.39171627061208E-14   9.52000000000000E+00   9.52000000000000E+00   0.00000000000000E+00   0.00000000000000E+00
     -2.27871971634683E-12  -3.71587217421191E-16  -2.27909130356425E-12  -2.76055655931123E-14   4.32236561454428E-01
      5.48161534469377E-10   5.67763437997410E-01   4.32236561454428E-01   5.48161534469377E-10   5.67763437997410E-01
      4.32236561454428E-01   5.48161534469377E-10   5.67763437997410E-01
      5.10000000000000E-02
      1.00000000000000E+01   1.00000000000000E+01   0.00000000000000E+00   0.00000000000000E+00   1.20855367968824E-12
     -1.12497543772085E-26   1.20855367968823E-12   1.38109619761812E-14   1.00000000000000E+01   1.00000000000000E+01
      0.00000000000000E+00   0.00000000000000E+00   1.07647663577280E-12  -7.52448665336096E-28   1.07647663577280E-12
      1.40390172759015E-14   9.49000000000000E+00   9.49000000000000E+00   0.00000000000000E+00   0.00000000000000E+00
     -2.28295796847916E-12  -2.07234698186701E-15  -2.28503031546103E-12  -2.78499792520827E-14   4.32236561454428E-01
      5.48161534469377E-10   5.67763437997410E-01   4.32236561454428E-01   5.48161534469377E-10   5.67763437997410E-01
      4.32236561454428E-01   5.48161534469377E-10   5.67763437997410E-01
      5.40000000000000E-02
      1.00000000000000E+01   1.00000000000000E+01   0.00000000000000E+00   0.00000000000000E+00   1.21171445857765E-12
     -1.98767863516925E-26   1.21171445857763E-12   1.39333014839392E-14   1.00000000000000E+01   1.00000000000000E+01
      0.00000000000000E+00   0.00000000000000E+00   1.07940741184368E-12  -2.08990759607150E-27   1.07940741184368E-12
      1.41606438637964E-14   9.46000000000000E+00   9.46000000000000E+00   0.00000000000000E+00   0.00000000000000E+00
     -2.29084363438637E-12  -2.78236034930077E-16  -2.29112187042130E-12  -2.80939453477356E-14   4.32236561454428E-01
      5.48161534469377E-10   5.67763437997410E-01   4.32236561454428E-01   5.48161534469377E-10   5.67763437997410E-01
      4.32236561454428E-01   5.48161534469377E-10   5.67763437997410E-01
      5.70000000000000E-02
      1.00000000000000E+01   1.00000000000000E+01   0.00000000000000E+00   0.00000000000000E+00   1.21495680426169E-12
     -4.02925626335006E-26   1.21495680426165E-12   1.40553650980129E-14   1.00000000000000E+01   1.00000000000000E+01
      0.00000000000000E+00   0.00000000000000E+00   1.08240572645363E-12  -4.81165087881264E-27   1.08240572645363E-12
      1.42819825706729E-14   9.43000000000000E+00   9.43000000000000E+00   0.00000000000000E+00   0.00000000000000E+00
     -2.29514879650836E-12  -2.21373420691682E-15  -2.29736253071528E-12  -2.83373476686858E-14   4.32236561454428E-01
      5.48161534469377E-10   5.67763437997410E-01   4.32236561454428E-01   5.48161534469377E-10   5.67763437997410E-01
      4.32236561454428E-01   5.48161534469377E-10   5.67763437997410E-01
      6.00000000000000E-02
      1.00000000000000E+01   1.00000000000000E+01   0.00000000000000E+00   0.00000000000000E+00   1.21827755093644E-12
     -7.85628576625413E-26   1.21827755093636E-12   1.41770785499642E-14   1.00000000000000E+01   1.00000000000000E+01
      0.00000000000000E+00   0.00000000000000E+00   1.08546838530923E-12  -1.01318077075626E-26   1.08546838530922E-12
      1.44029512383443E-14   9.40000000000000E+00   9.40000000000000E+00   0.00000000000000E+00   0.00000000000000E+00
     -2.30405801391333E-12   3.12077667746487E-16  -2.30374593624558E-12  -2.85800297883085E-14   4.32236561454428E-01
      5.48161534469377E-10   5.67763437997410E-01   4.32236561454428E-01   5.48161534469377E-10   5.67763437997410E-01
      4.32236561454428E-01   5.48161534469377E-10   5.67763437997410E-01
      6.30000000000000E-02
      1.00000000000000E+01   1.00000000000000E+01   0.00000000000000E+00   0.00000000000000E+00   1.22167200540825E-12
     -1.31531454366396E-25   1.22167200540812E-12   1.42983467147712E-14   1.00000000000000E+01   1.00000000000000E+01
      0.00000000000000E+00   0.00000000000000E+00   1.08859069040146E-12  -1.76591928558447E-26   1.08859069040144E-12
      1.45234403311482E-14   9.37000000000000E+00   9.37000000000000E+00   0.00000000000000E+00   0.00000000000000E+00
     -2.30990435990218E-12  -3.58335907374142E-16  -2.31026269580956E-12  -2.88217870459195E-14   4.32236561454428E-01
      5.48161534469377E-10   5.67763437997410E-01   4.32236561454428E-01   5.48161534469377E-10   5.67763437997410E-01
      4.32236561454428E-01   5.48161534469377E-10   5.67763437997410E-01
      6.60000000000000E-02
      1.00000000000000E+01   1.00000000000000E+01   0.00000000000000E+00   0.00000000000000E+00   1.22513386154491E-12
     -2.10393566184935E-25   1.22513386154470E-12   1.44190511071800E-14   1.00000000000000E+01   1.00000000000000E+01
      0.00000000000000E+00   0.00000000000000E+00   1.09176649459376E-12  -2.12855275118312E-26   1.09176649459374E-12
      1.46433135105489E-14   9.34000000000000E+00   9.34000000000000E+00   0.00000000000000E+00   0.00000000000000E+00
     -2.31523312835994E-12  -1.66722777850351E-15  -2.31690035613844E-12  -2.90623646177287E-14   4.32236561454428E-01
      5.48161534469377E-10   5.67763437997410E-01   4.32236561454428E-01   5.48161534469377E-10   5.67763437997410E-01
      4.32236561454428E-01   5.48161534469377E-10   5.67763437997410E-01
      6.90000000000000E-02
      1.00000000000000E+01   1.00000000000000E+01   0.00000000000000E+00   0.00000000000000E+00   1.22865478820318E-12
     -3.47734992043538E-25   1.22865478820284E-12   1.45390430524931E-14   1.00000000000000E+01   1.00000000000000E+01
      0.00000000000000E+00   0.00000000000000E+00   1.09498828737246E-12  -2.07583819885665E-26   1.09498828737244E-12
      1.47624145485550E-14   9.31000000000000E+00   9.31000000000000E+00   0.00000000000000E+00   0.00000000000000E+00
     -2.32364083919045E-12  -2.23638483136679E-18  -2.32364307557528E-12  -2.93014576010480E-14   4.32236561454428E-01
      5.48161534469377E-10   5.67763437997410E-01   4.32236561454428E-01   5.48161534469377E-10   5.67763437997410E-01
      4.32236561454428E-01   5.48161534469377E-10   5.67763437997410E-01
      7.20000000000000E-02
      1.00000000000000E+01   1.00000000000000E+01   0.00000000000000E+00   0.00000000000000E+00   1.23222309716329E-12
     -6.57245109992340E-25   1.23222309716263E-12   1.46581280659378E-14   1.00000000000000E+01   1.00000000000000E+01
      0.00000000000000E+00   0.00000000000000E+00   1.09824713679055E-12  -2.40731453109571E-26   1.09824713679052E-12
      1.48805658894521E-14   9.28000000000000E+00   9.28000000000000E+00   0.00000000000000E+00   0.00000000000000E+00
     -2.32999738631684E-12  -4.72847636315524E-16  -2.33047023395315E-12  -2.95386939553899E-14   4.32236561454428E-01
      5.48161534469377E-10   5.67763437997410E-01   4.32236561454428E-01   5.48161534469377E-10   5.67763437997410E-01
      4.32236561454428E-01   5.48161534469377E-10   5.67763437997410E-01
      7.50000000000000E-02
      1.00000000000000E+01   1.00000000000000E+01   0.00000000000000E+00   0.00000000000000E+00   1.23582350641763E-12
     -1.34932206950940E-24   1.23582350641628E-12   1.47760522982120E-14   1.00000000000000E+01   1.00000000000000E+01
      0.00000000000000E+00   0.00000000000000E+00   1.10153220227243E-12  -3.24894919752563E-26   1.10153220227240E-12
      1.49975543771838E-14   9.25000000000000E+00   9.25000000000000E+00   0.00000000000000E+00   0.00000000000000E+00
     -2.33636321763814E-12  -9.92491050547037E-16  -2.33735570868868E-12  -2.97736066753959E-14   4.32236561454428E-01
      5.48161534469377E-10   5.67763437997410E-01   4.32236561454428E-01   5.48161534469377E-10   5.67763437997410E-01
      4.32236561454428E-01   5.48161534469377E-10   5.67763437997410E-01
      7.80000000000000E-02
      1.00000000000000E+01   1.00000000000000E+01   0.00000000000000E+00   0.00000000000000E+00   1.23943768543020E-12
     -2.33341272012724E-24   1.23943768542787E-12   1.48925333313211E-14   1.00000000000000E+01   1.00000000000000E+01
      0.00000000000000E+00   0.00000000000000E+00   1.10483087749648E-12  -3.60840099023885E-26   1.10483087749645E-12
      1.51131476396440E-14   9.22000000000000E+00   9.22000000000000E+00   0.00000000000000E+00   0.00000000000000E+00
     -2.34272767536825E-12  -1.54088755606499E-15  -2.34426856292431E-12  -3.00056809709653E-14   4.32236561454428E-01
      5.48161534469377E-10   5.67763437997410E-01   4.32236561454428E-01   5.48161534469377E-10   5.67763437997410E-01
      4.32236561454428E-01   5.48161534469377E-10   5.67763437997410E-01
      8.10000000000000E-02
      1.00000000000000E+01   1.00000000000000E+01   0.00000000000000E+00   0.00000000000000E+00   1.24304848236680E-12
     -2.16450212945434E-24   1.24304848236464E-12   1.50073985885659E-14   1.00000000000000E+01   1.00000000000000E+01
      0.00000000000000E+00   0.00000000000000E+00   1.10813210968594E-12  -2.40993496464449E-26   1.10813210968591E-12
      1.52272003709710E-14   9.19000000000000E+00   9.19000000000000E+00   0.00000000000000E+00   0.00000000000000E+00
     -2.34960027017200E-12  -1.58032187856221E-15  -2.35118059205056E-12  -3.02345989595369E-14   4.32236561454428E-01
      5.48161534469377E-10   5.67763437997410E-01   4.32236561454428E-01   5.48161534469377E-10   5.67763437997410E-01
      4.32236561454428E-01   5.48161534469377E-10   5.67763437997410E-01
      8.40000000000000E-02
      1.00000000000000E+01   1.00000000000000E+01   0.00000000000000E+00   0.00000000000000E+00   1.24664973322956E-12
     -5.59029132852871E-25   1.24664973322900E-12   1.51208000444345E-14   1.00000000000000E+01   1.00000000000000E+01
      0.00000000000000E+00   0.00000000000000E+00   1.11143347523236E-12  -5.21246152863198E-27   1.11143347523235E-12
      1.53398450816770E-14   9.16000000000000E+00   9.16000000000000E+00   0.00000000000000E+00   0.00000000000000E+00
     -2.35545265612946E-12  -2.63055233188223E-15  -2.35808320846135E-12  -3.04606451261115E-14   4.32236561454428E-01
      5.48161534469377E-10   5.67763437997410E-01   4.32236561454428E-01   5.48161534469377E-10   5.67763437997410E-01
      4.32236561454428E-01   5.48161534469377E-10   5.67763437997410E-01
      8.70000000000000E-02
      1.00000000000000E+01   1.00000000000000E+01   0.00000000000000E+00   0.00000000000000E+00   1.25025204631537E-12
     -2.49643471025801E-26   1.25025204631534E-12   1.52332193292928E-14   1.00000000000000E+01   1.00000000000000E+01
      0.00000000000000E+00   0.00000000000000E+00   1.11474437837993E-12  -1.22660245895690E-28   1.11474437837993E-12
      1.54515234319223E-14   9.13000000000000E+00   9.13000000000000E+00   0.00000000000000E+00   0.00000000000000E+00
     -2.36494045685745E-12  -5.59678378184539E-17  -2.36499642469527E-12  -3.06847427612154E-14   4.32236561454428E-01
      5.48161534469377E-10   5.67763437997410E-01   4.32236561454428E-01   5.48161534469377E-10   5.67763437997410E-01
      4.32236561454428E-01   5.48161534469377E-10   5.67763437997410E-01
      9.00000000000000E-02
      1.00000000000000E+01   1.00000000000000E+01   0.00000000000000E+00   0.00000000000000E+00   1.25387289323969E-12
     -4.46889261583297E-28   1.25387289323969E-12   1.53451413779306E-14   1.00000000000000E+01   1.00000000000000E+01
      0.00000000000000E+00   0.00000000000000E+00   1.11807795947992E-12   3.67800065722114E-28   1.11807795947992E-12
      1.55626933690488E-14   9.10000000000000E+00   9.10000000000000E+00   0.00000000000000E+00   0.00000000000000E+00
     -2.37181516034307E-12  -1.35692376540884E-16  -2.37195085271961E-12  -3.09078347469795E-14   4.32236561454428E-01
      5.48161534469377E-10   5.67763437997410E-01   4.32236561454428E-01   5.48161534469377E-10   5.67763437997410E-01
      4.32236561454428E-01   5.48161534469377E-10   5.67763437997410E-01
      9.30000000000000E-02
      1.00000000000000E+01   1.00000000000000E+01   0.00000000000000E+00   0.00000000000000E+00   1.25752519308342E-12
      1.06707535754947E-27   1.25752519308342E-12   1.54568421839260E-14   1.00000000000000E+01   1.00000000000000E+01
      0.00000000000000E+00   0.00000000000000E+00   1.12144314491420E-12   6.30912935956317E-28   1.12144314491420E-12
      1.56736175022945E-14   9.07000000000000E+00   9.07000000000000E+00   0.00000000000000E+00   0.00000000000000E+00
     -2.37970735979061E-12   7.39021792987029E-16  -2.37896833799763E-12  -3.11304596862207E-14   4.32236561454428E-01
      5.48161534469377E-10   5.67763437997410E-01   4.32236561454428E-01   5.48161534469377E-10   5.67763437997410E-01
      4.32236561454428E-01   5.48161534469377E-10   5.67763437997410E-01
      9.60000000000000E-02
      1.00000000000000E+01   1.00000000000000E+01   0.00000000000000E+00   0.00000000000000E+00   1.26121599979598E-12
      1.91014518704379E-27   1.26121599979598E-12   1.55684345826083E-14   1.00000000000000E+01   1.00000000000000E+01
      0.00000000000000E+00   0.00000000000000E+00   1.12484445453241E-12   1.21630415156379E-27   1.12484445453241E-12
      1.57843997431928E-14   9.04000000000000E+00   9.04000000000000E+00   0.00000000000000E+00   0.00000000000000E+00
     -2.38657266709937E-12   5.12212770977345E-16  -2.38606045432839E-12  -3.13528343258011E-14   4.32236561454428E-01
      5.48161534469377E-10   5.67763437997410E-01   4.32236561454428E-01   5.48161534469377E-10   5.67763437997410E-01
      4.32236561454428E-01   5.48161534469377E-10   5.67763437997410E-01
      9.90000000000000E-02
      1.00000000000000E+01   1.00000000000000E+01   0.00000000000000E+00   0.00000000000000E+00   1.26494906647102E-12