DF-ISE text

Info {
  version   = 1.0
  type      = xyplot
  datasets  = [
    "time"
    "cathode OuterVoltage" "cathode InnerVoltage" "cathode QuasiFermiPotential" "cathode DisplacementCurrent" "cathode eCurrent"
    "cathode hCurrent" "cathode TotalCurrent" "cathode Charge" "cathode1 OuterVoltage" "cathode1 InnerVoltage"
    "cathode1 QuasiFermiPotential" "cathode1 DisplacementCurrent" "cathode1 eCurrent" "cathode1 hCurrent" "cathode1 TotalCurrent"
    "cathode1 Charge" "anode OuterVoltage" "anode InnerVoltage" "anode QuasiFermiPotential" "anode DisplacementCurrent"
    "anode eCurrent" "anode hCurrent" "anode TotalCurrent" "anode Charge" "LayerStack(Window1) R_TE"
    "LayerStack(Window1) T_TE" "LayerStack(Window1) A_TE" "LayerStack(Window1) R_TM" "LayerStack(Window1) T_TM" "LayerStack(Window1) A_TM"
    "LayerStack(Window1) R_Total" "LayerStack(Window1) T_Total" "LayerStack(Window1) A_Total" ]
  functions = [
    Time
    OuterVoltage InnerVoltage QuasiFermiPotential DisplacementCurrent eCurrent
    hCurrent TotalCurrent Charge OuterVoltage InnerVoltage
    QuasiFermiPotential DisplacementCurrent eCurrent hCurrent TotalCurrent
    Charge OuterVoltage InnerVoltage QuasiFermiPotential DisplacementCurrent
    eCurrent hCurrent TotalCurrent Charge R_TE
    T_TE A_TE R_TM T_TM A_TM
    R_Total T_Total A_Total ]
}

Data {
      0.00000000000000E+00
      3.00000000000000E+01   3.00000000000000E+01   0.00000000000000E+00   0.00000000000000E+00   7.89964145552318E-14
     -7.89964145552318E-14   0.00000000000000E+00   9.33199086566535E-14   3.00000000000000E+01   3.00000000000000E+01
      0.00000000000000E+00   0.00000000000000E+00   3.02047684683989E-91   1.99029550103352E-89   2.02050026950192E-89
      9.11839711062619E-14   3.00000000000000E+01   3.00000000000000E+01   0.00000000000000E+00   0.00000000000000E+00
      1.66132834711009E-12  -1.66132834711008E-12   4.64101685706652E-27  -2.17137227144044E-13   4.32236561454428E-01
      5.48161534469375E-10   5.67763437997410E-01   4.32236561454428E-01   5.48161534469375E-10   5.67763437997410E-01
      4.32236561454428E-01   5.48161534469375E-10   5.67763437997410E-01
      0.00000000000000E+00
      3.00000000000000E+01   3.00000000000000E+01   0.00000000000000E+00   0.00000000000000E+00   7.89964145544124E-14
     -7.89964145552318E-14  -8.19363615290906E-25   1.15699012208832E-14   3.00000000000000E+01   3.00000000000000E+01
      0.00000000000000E+00   0.00000000000000E+00  -1.12545471883712E-24  -5.77053493122790E-91  -1.12545471883712E-24
      1.15204994910517E-14   3.00000000000000E+01   3.00000000000000E+01   0.00000000000000E+00   0.00000000000000E+00
      1.66132834711203E-12  -1.66132834711009E-12   1.94521892904593E-24  -2.30904007119349E-14   4.32236561454428E-01
      5.48161534469375E-10   5.67763437997410E-01   4.32236561454428E-01   5.48161534469375E-10   5.67763437997410E-01
      4.32236561454428E-01   5.48161534469375E-10   5.67763437997410E-01
      0.00000000000000E+00
      3.00000000000000E+01   3.00000000000000E+01   0.00000000000000E+00   0.00000000000000E+00   7.32619482466186E-13
     -5.91051426755307E-17   7.32560377323510E-13   1.15698800084253E-14   3.00000000000000E+01   3.00000000000000E+01
      0.00000000000000E+00   0.00000000000000E+00   6.55648717927290E-13  -7.52596311476331E-17   6.55573458296142E-13
      1.15204773371162E-14   3.00000000000000E+01   3.00000000000000E+01   0.00000000000000E+00   0.00000000000000E+00
     -1.36503229365368E-12  -2.31015419659028E-14  -1.38813383561958E-12  -2.30903573455416E-14   4.32236561454428E-01
      5.48161534469375E-10   5.67763437997410E-01   4.32236561454428E-01   5.48161534469375E-10   5.67763437997410E-01
      4.32236561454428E-01   5.48161534469375E-10   5.67763437997410E-01
      3.00000000000000E-03
      3.00000000000000E+01   3.00000000000000E+01   0.00000000000000E+00   0.00000000000000E+00   1.08027216343788E-10
      4.47266459059099E-16   1.08027663610247E-10   1.20885445504706E-14   3.00000000000000E+01   3.00000000000000E+01
      0.00000000000000E+00   0.00000000000000E+00   1.23238371129068E-10   1.31620447465448E-14   1.23251533173815E-10
      1.20463822520705E-14   2.99100000000000E+01   2.99100000000000E+01   0.00000000000000E+00   0.00000000000000E+00
     -3.10146196298265E-10   7.88669995142064E-11  -2.31279196784059E-10  -2.41349268025411E-14   4.32236561454428E-01
      5.48161534469375E-10   5.67763437997410E-01   4.32236561454428E-01   5.48161534469375E-10   5.67763437997410E-01
      4.32236561454428E-01   5.48161534469375E-10   5.67763437997410E-01
      3.39506172839506E-03
      3.00000000000000E+01   3.00000000000000E+01   0.00000000000000E+00   0.00000000000000E+00   4.45067124893155E-12
      2.31871862314267E-16   4.45090312079386E-12   1.21549452992757E-14   3.00000000000000E+01   3.00000000000000E+01
      0.00000000000000E+00   0.00000000000000E+00   2.84251294366275E-07   1.47670814146486E-08   2.99018375780924E-07
      1.21102813805033E-14   2.98981481481481E+01   2.98981481481481E+01   0.00000000000000E+00   0.00000000000000E+00
     -6.04351176444738E-07   3.05328349760692E-07  -2.99022826684046E-07  -2.42652266797791E-14   4.32236561454428E-01
      5.48161534469375E-10   5.67763437997410E-01   4.32236561454428E-01   5.48161534469375E-10   5.67763437997410E-01
      4.32236561454428E-01   5.48161534469375E-10   5.67763437997410E-01
