DF-ISE text

Info {
  version   = 1.0
  type      = xyplot
  datasets  = [
    "time"
    "Cathode OuterVoltage" "Cathode InnerVoltage" "Cathode QuasiFermiPotential" "Cathode DisplacementCurrent" "Cathode eCurrent"
    "Cathode hCurrent" "Cathode TotalCurrent" "Cathode Charge" "Anode OuterVoltage" "Anode InnerVoltage"
    "Anode QuasiFermiPotential" "Anode DisplacementCurrent" "Anode eCurrent" "Anode hCurrent" "Anode TotalCurrent"
    "Anode Charge" "LayerStack(Window1) R_TE" "LayerStack(Window1) T_TE" "LayerStack(Window1) A_TE" "LayerStack(Window1) R_TM"
    "LayerStack(Window1) T_TM" "LayerStack(Window1) A_TM" "LayerStack(Window1) R_Total" "LayerStack(Window1) T_Total" "LayerStack(Window1) A_Total" ]
  functions = [
    Time
    OuterVoltage InnerVoltage QuasiFermiPotential DisplacementCurrent eCurrent
    hCurrent TotalCurrent Charge OuterVoltage InnerVoltage
    QuasiFermiPotential DisplacementCurrent eCurrent hCurrent TotalCurrent
    Charge R_TE T_TE A_TE R_TM
    T_TM A_TM R_Total T_Total A_Total ]
}

Data {
      0.00000000000000E+00
      1.00000000000000E+01   1.00000000000000E+01   0.00000000000000E+00   0.00000000000000E+00   3.04667857051719E-16
      3.17751000550726E-45   3.04667857051719E-16  -2.22963123432414E-29   1.00000000000000E+01   1.00000000000000E+01
      0.00000000000000E+00   0.00000000000000E+00  -4.61159355843427E-35   4.61159355843427E-35   0.00000000000000E+00
      0.00000000000000E+00   7.18575318481281E-01   2.81424681518719E-01   0.00000000000000E+00   7.18575318481281E-01
      2.81424681518719E-01   0.00000000000000E+00   7.18575318481281E-01   2.81424681518719E-01   0.00000000000000E+00
      0.00000000000000E+00
      1.00000000000000E+01   1.00000000000000E+01   0.00000000000000E+00   0.00000000000000E+00   1.30439294121040E-30
     -3.22172922988776E-31   9.82220018221620E-31  -2.75607194242845E-29   1.00000000000000E+01   1.00000000000000E+01
      0.00000000000000E+00   0.00000000000000E+00   1.68729733685496E-32   3.94901195348647E-35   1.69124634880845E-32
      1.54835502383621E-31   7.18575318481281E-01   2.81424681518719E-01   0.00000000000000E+00   7.18575318481281E-01
      2.81424681518719E-01   0.00000000000000E+00   7.18575318481281E-01   2.81424681518719E-01   0.00000000000000E+00
      0.00000000000000E+00
      1.00000000000000E+01   1.00000000000000E+01   0.00000000000000E+00   0.00000000000000E+00  -4.43204399933956E-29
      5.74205129223635E-30  -3.85783887011593E-29   1.18062070567511E-29   1.00000000000000E+01   1.00000000000000E+01
      0.00000000000000E+00   0.00000000000000E+00  -4.27208597526002E-30  -2.97164502939336E-25  -2.97168775025311E-25
     -1.54835502383621E-31   7.18575318481281E-01   2.81424681518719E-01   0.00000000000000E+00   7.18575318481281E-01
      2.81424681518719E-01   0.00000000000000E+00   7.18575318481281E-01   2.81424681518719E-01   0.00000000000000E+00
      3.00000000000000E-03
      1.00000000000000E+01   1.00000000000000E+01   0.00000000000000E+00   0.00000000000000E+00   1.10199982395859E-19
     -1.94262704130629E-23   1.10180556125446E-19   2.17543880848988E-29   9.97000000000000E+00   9.97000000000000E+00
      0.00000000000000E+00   0.00000000000000E+00   2.90067437878127E-23  -1.07339060000347E-19  -1.07310053256559E-19
      1.54835502383621E-31   7.18575318481281E-01   2.81424681518719E-01   0.00000000000000E+00   7.18575318481281E-01
      2.81424681518719E-01   0.00000000000000E+00   7.18575318481281E-01   2.81424681518719E-01   0.00000000000000E+00
      6.00000000000000E-03
      1.00000000000000E+01   1.00000000000000E+01   0.00000000000000E+00   0.00000000000000E+00   1.83888100427481E-19
     -1.17526480064456E-25   1.83887982901001E-19   7.36242813834118E-29   9.94000000000000E+00   9.94000000000000E+00
      0.00000000000000E+00   0.00000000000000E+00   5.00763931683351E-23  -1.85897420795523E-19  -1.85847344402354E-19
      1.54835502383621E-31   7.18575318481281E-01   2.81424681518719E-01   0.00000000000000E+00   7.18575318481281E-01
      2.81424681518719E-01   0.00000000000000E+00   7.18575318481281E-01   2.81424681518719E-01   0.00000000000000E+00
      9.00000000000000E-03
      1.00000000000000E+01   1.00000000000000E+01   0.00000000000000E+00   0.00000000000000E+00   2.42593030239327E-19
      3.57144697654876E-25   2.42593387384024E-19   1.53674236115744E-29   9.91000000000000E+00   9.91000000000000E+00
      0.00000000000000E+00   0.00000000000000E+00   6.50446283404241E-23  -2.41465651879090E-19  -2.41400607250750E-19
     -3.09671004767242E-31   7.18575318481281E-01   2.81424681518719E-01   0.00000000000000E+00   7.18575318481281E-01
      2.81424681518719E-01   0.00000000000000E+00   7.18575318481281E-01   2.81424681518719E-01   0.00000000000000E+00
      1.20000000000000E-02
      1.00000000000000E+01   1.00000000000000E+01   0.00000000000000E+00   0.00000000000000E+00   3.19023887421373E-19
     -1.41039371482285E-24   3.19022477027658E-19  -7.70306624358515E-30   9.88000000000000E+00   9.88000000000000E+00
      0.00000000000000E+00   0.00000000000000E+00   8.48754395044591E-23  -3.15086852488413E-19  -3.15001977048909E-19
      1.54835502383621E-31   7.18575318481281E-01   2.81424681518719E-01   0.00000000000000E+00   7.18575318481281E-01
      2.81424681518719E-01   0.00000000000000E+00   7.18575318481281E-01   2.81424681518719E-01   0.00000000000000E+00
      1.50000000000000E-02
      1.00000000000000E+01   1.00000000000000E+01   0.00000000000000E+00   0.00000000000000E+00   3.88336132336950E-19
     -3.77433237931212E-22   3.87958699099019E-19   6.06568080587835E-29   9.85000000000000E+00   9.85000000000000E+00
      0.00000000000000E+00   0.00000000000000E+00   1.03655047223523E-22  -3.84806839563993E-19  -3.84703184516769E-19
     -3.09671004767242E-31   7.18575318481281E-01   2.81424681518719E-01   0.00000000000000E+00   7.18575318481281E-01
      2.81424681518719E-01   0.00000000000000E+00   7.18575318481281E-01   2.81424681518719E-01   0.00000000000000E+00
      1.80000000000000E-02
      1.00000000000000E+01   1.00000000000000E+01   0.00000000000000E+00   0.00000000000000E+00   4.53602952258464E-19
     -9.13065935913669E-23   4.53511645664872E-19  -1.33545620805873E-29   9.82000000000000E+00   9.82000000000000E+00
      0.00000000000000E+00   0.00000000000000E+00   1.20829784855176E-22  -4.48569803268397E-19  -4.48448973483542E-19
      1.54835502383621E-31   7.18575318481281E-01   2.81424681518719E-01   0.00000000000000E+00   7.18575318481281E-01
      2.81424681518719E-01   0.00000000000000E+00   7.18575318481281E-01   2.81424681518719E-01   0.00000000000000E+00
      2.10000000000000E-02
      1.00000000000000E+01   1.00000000000000E+01   0.00000000000000E+00   0.00000000000000E+00   5.46317519263940E-19
     -6.81163444569440E-23   5.46249402919483E-19  -3.90959643518643E-30   9.79000000000000E+00   9.79000000000000E+00
      0.00000000000000E+00   0.00000000000000E+00   1.48172873179648E-22  -5.50086101422116E-19  -5.49937928548936E-19
      0.00000000000000E+00   7.18575318481281E-01   2.81424681518719E-01   0.00000000000000E+00   7.18575318481281E-01
      2.81424681518719E-01   0.00000000000000E+00   7.18575318481281E-01   2.81424681518719E-01   0.00000000000000E+00
      2.40000000000000E-02
      1.00000000000000E+01   1.00000000000000E+01   0.00000000000000E+00   0.00000000000000E+00   6.15507627330744E-19
     -4.02712365502592E-23   6.15467356094194E-19   5.66697938724053E-29   9.76000000000000E+00   9.76000000000000E+00
      0.00000000000000E+00   0.00000000000000E+00   1.66893505192031E-22  -6.19591471968189E-19  -6.19424578462997E-19
     -1.54835502383621E-31   7.18575318481281E-01   2.81424681518719E-01   0.00000000000000E+00   7.18575318481281E-01
      2.81424681518719E-01   0.00000000000000E+00   7.18575318481281E-01   2.81424681518719E-01   0.00000000000000E+00
      2.70000000000000E-02
      1.00000000000000E+01   1.00000000000000E+01   0.00000000000000E+00   0.00000000000000E+00   6.62232447335261E-19
     -8.80328538100173E-24   6.62223644049880E-19   1.85028425348427E-29   9.73000000000000E+00   9.73000000000000E+00
      0.00000000000000E+00   0.00000000000000E+00   1.78246662334799E-22  -6.61743685565532E-19  -6.61565438903197E-19
      1.54835502383621E-31   7.18575318481281E-01   2.81424681518719E-01   0.00000000000000E+00   7.18575318481281E-01
      2.81424681518719E-01   0.00000000000000E+00   7.18575318481281E-01   2.81424681518719E-01   0.00000000000000E+00
      3.00000000000000E-02
      1.00000000000000E+01   1.00000000000000E+01   0.00000000000000E+00   0.00000000000000E+00   6.96021361626580E-19
     -5.98878804101549E-24   6.96015372838539E-19  -9.21271239182545E-30   9.70000000000000E+00   9.70000000000000E+00
      0.00000000000000E+00   0.00000000000000E+00   1.87984511419223E-22  -6.97906927236008E-19  -6.97718942724589E-19
      0.00000000000000E+00   7.18575318481281E-01   2.81424681518719E-01   0.00000000000000E+00   7.18575318481281E-01
      2.81424681518719E-01   0.00000000000000E+00   7.18575318481281E-01   2.81424681518719E-01   0.00000000000000E+00
      3.30000000000000E-02
      1.00000000000000E+01   1.00000000000000E+01   0.00000000000000E+00   0.00000000000000E+00   7.27363752931180E-19
     -1.14597643786356E-23   7.27352293166802E-19   3.49928235386984E-29   9.67000000000000E+00   9.67000000000000E+00
      0.00000000000000E+00   0.00000000000000E+00   1.95369920717388E-22  -7.25300539893117E-19  -7.25105169972400E-19
     -3.09671004767242E-31   7.18575318481281E-01   2.81424681518719E-01   0.00000000000000E+00   7.18575318481281E-01
      2.81424681518719E-01   0.00000000000000E+00   7.18575318481281E-01   2.81424681518719E-01   0.00000000000000E+00
      3.60000000000000E-02
      1.00000000000000E+01   1.00000000000000E+01   0.00000000000000E+00   0.00000000000000E+00   7.86055509064177E-19
     -1.79962088496871E-23   7.86037512855328E-19   2.28382366015841E-29   9.64000000000000E+00   9.64000000000000E+00
      0.00000000000000E+00   0.00000000000000E+00   2.12564394103997E-22  -7.89154037866984E-19  -7.88941473472880E-19
      3.09671004767242E-31   7.18575318481281E-01   2.81424681518719E-01   0.00000000000000E+00   7.18575318481281E-01
      2.81424681518719E-01   0.00000000000000E+00   7.18575318481281E-01   2.81424681518719E-01   0.00000000000000E+00
      3.90000000000000E-02
      1.00000000000000E+01   1.00000000000000E+01   0.00000000000000E+00   0.00000000000000E+00   9.06287512970832E-19
     -6.66649318717879E-23   9.06220848038960E-19   1.36255242097587E-29   9.61000000000000E+00   9.61000000000000E+00
      0.00000000000000E+00   0.00000000000000E+00   2.41926338864591E-22  -8.98143700251179E-19  -8.97901773912314E-19
     -1.54835502383621E-31   7.18575318481281E-01   2.81424681518719E-01   0.00000000000000E+00   7.18575318481281E-01
      2.81424681518719E-01   0.00000000000000E+00   7.18575318481281E-01   2.81424681518719E-01   0.00000000000000E+00
      4.20000000000000E-02
      1.00000000000000E+01   1.00000000000000E+01   0.00000000000000E+00   0.00000000000000E+00   1.03487185297563E-18
      2.42595831402566E-24   1.03487427893394E-18  -8.16757275073601E-30   9.58000000000000E+00   9.58000000000000E+00
      0.00000000000000E+00   0.00000000000000E+00   2.78826834033414E-22  -1.03514342077934E-18  -1.03486459394530E-18
      3.09671004767242E-31   7.18575318481281E-01   2.81424681518719E-01   0.00000000000000E+00   7.18575318481281E-01
      2.81424681518719E-01   0.00000000000000E+00   7.18575318481281E-01   2.81424681518719E-01   0.00000000000000E+00
      4.50000000000000E-02
      1.00000000000000E+01   1.00000000000000E+01   0.00000000000000E+00   0.00000000000000E+00   1.10834830964077E-18
      1.42749120675253E-24   1.10834973713198E-18  -6.85147098047523E-30   9.55000000000000E+00   9.55000000000000E+00
      0.00000000000000E+00   0.00000000000000E+00   2.98617934971568E-22  -1.10860954000112E-18  -1.10831092206615E-18
      0.00000000000000E+00   7.18575318481281E-01   2.81424681518719E-01   0.00000000000000E+00   7.18575318481281E-01
      2.81424681518719E-01   0.00000000000000E+00   7.18575318481281E-01   2.81424681518719E-01   0.00000000000000E+00
      4.80000000000000E-02
      1.00000000000000E+01   1.00000000000000E+01   0.00000000000000E+00   0.00000000000000E+00   1.17918458260042E-18
      2.47578925195489E-24   1.17918705838967E-18  -1.44771194728686E-29   9.52000000000000E+00   9.52000000000000E+00
      0.00000000000000E+00   0.00000000000000E+00   3.17717160399937E-22  -1.17949455683774E-18  -1.17917683967734E-18
      4.64506507150863E-31   7.18575318481281E-01   2.81424681518719E-01   0.00000000000000E+00   7.18575318481281E-01
      2.81424681518719E-01   0.00000000000000E+00   7.18575318481281E-01   2.81424681518719E-01   0.00000000000000E+00
      5.10000000000000E-02
      1.00000000000000E+01   1.00000000000000E+01   0.00000000000000E+00   0.00000000000000E+00   1.24362657454749E-18
      2.94488633919054E-24   1.24362951943383E-18  -1.07997762912576E-29   9.49000000000000E+00   9.49000000000000E+00
      0.00000000000000E+00   0.00000000000000E+00   3.35066549750190E-22  -1.24387751114916E-18  -1.24354244459941E-18
      0.00000000000000E+00   7.18575318481281E-01   2.81424681518719E-01   0.00000000000000E+00   7.18575318481281E-01
      2.81424681518719E-01   0.00000000000000E+00   7.18575318481281E-01   2.81424681518719E-01   0.00000000000000E+00
      5.40000000000000E-02
      1.00000000000000E+01   1.00000000000000E+01   0.00000000000000E+00   0.00000000000000E+00   1.27167536640276E-18
     -5.94960696135407E-23   1.27161587033314E-18   8.47724375550325E-30   9.46000000000000E+00   9.46000000000000E+00
      0.00000000000000E+00   0.00000000000000E+00   3.39944164081430E-22  -1.26194293306265E-18  -1.26160298889857E-18
     -1.54835502383621E-31   7.18575318481281E-01   2.81424681518719E-01   0.00000000000000E+00   7.18575318481281E-01
      2.81424681518719E-01   0.00000000000000E+00   7.18575318481281E-01   2.81424681518719E-01   0.00000000000000E+00
      5.70000000000000E-02
      1.00000000000000E+01   1.00000000000000E+01   0.00000000000000E+00   0.00000000000000E+00   1.28669566879349E-18
      3.06897408987932E-24   1.28669873776758E-18   2.13285904533438E-29   9.43000000000000E+00   9.43000000000000E+00
      0.00000000000000E+00   0.00000000000000E+00   3.46604588267453E-22  -1.28663161142135E-18  -1.28628500683308E-18
     -3.09671004767242E-31   7.18575318481281E-01   2.81424681518719E-01   0.00000000000000E+00   7.18575318481281E-01
      2.81424681518719E-01   0.00000000000000E+00   7.18575318481281E-01   2.81424681518719E-01   0.00000000000000E+00
      6.00000000000000E-02
      1.00000000000000E+01   1.00000000000000E+01   0.00000000000000E+00   0.00000000000000E+00   1.30329118072960E-18
      3.10533353960163E-24   1.30329428606314E-18  -1.09933206692371E-29   9.40000000000000E+00   9.40000000000000E+00
      0.00000000000000E+00   0.00000000000000E+00   3.51154047395039E-22  -1.30347351612268E-18  -1.30312236207529E-18
      4.64506507150863E-31   7.18575318481281E-01   2.81424681518719E-01   0.00000000000000E+00   7.18575318481281E-01
      2.81424681518719E-01   0.00000000000000E+00   7.18575318481281E-01   2.81424681518719E-01   0.00000000000000E+00
      6.30000000000000E-02
      1.00000000000000E+01   1.00000000000000E+01   0.00000000000000E+00   0.00000000000000E+00   1.32945780301611E-18
      3.16375891126067E-24   1.32946096677502E-18   7.31597748762609E-30   9.37000000000000E+00   9.37000000000000E+00
      0.00000000000000E+00   0.00000000000000E+00   3.58271593267480E-22  -1.32985576611941E-18  -1.32949749452614E-18
      0.00000000000000E+00   7.18575318481281E-01   2.81424681518719E-01   0.00000000000000E+00   7.18575318481281E-01
      2.81424681518719E-01   0.00000000000000E+00   7.18575318481281E-01   2.81424681518719E-01   0.00000000000000E+00
      6.60000000000000E-02
      1.00000000000000E+01   1.00000000000000E+01   0.00000000000000E+00   0.00000000000000E+00   1.38909813022451E-18
     -2.18074602727769E-23   1.38907632276424E-18   2.60897821516401E-29   9.34000000000000E+00   9.34000000000000E+00
      0.00000000000000E+00   0.00000000000000E+00   3.74372771919183E-22  -1.38960844513264E-18  -1.38923407236072E-18
     -3.09671004767242E-31   7.18575318481281E-01   2.81424681518719E-01   0.00000000000000E+00   7.18575318481281E-01
      2.81424681518719E-01   0.00000000000000E+00   7.18575318481281E-01   2.81424681518719E-01   0.00000000000000E+00
      6.90000000000000E-02
      1.00000000000000E+01   1.00000000000000E+01   0.00000000000000E+00   0.00000000000000E+00   1.50673983772202E-18
     -1.18167139600197E-22   1.50662167058242E-18  -1.55609679895539E-29   9.31000000000000E+00   9.31000000000000E+00
      0.00000000000000E+00   0.00000000000000E+00   4.05997784341953E-22  -1.50699767355374E-18  -1.50659167576940E-18
     -3.09671004767242E-31   7.18575318481281E-01   2.81424681518719E-01   0.00000000000000E+00   7.18575318481281E-01
      2.81424681518719E-01   0.00000000000000E+00   7.18575318481281E-01   2.81424681518719E-01   0.00000000000000E+00
      7.20000000000000E-02
      1.00000000000000E+01   1.00000000000000E+01   0.00000000000000E+00   0.00000000000000E+00   1.62235576566315E-18
     -1.25264299059671E-22   1.62223050136409E-18   4.14184968876186E-30   9.28000000000000E+00   9.28000000000000E+00
      0.00000000000000E+00   0.00000000000000E+00   4.36645882983729E-22  -1.62072232873088E-18  -1.62028568284789E-18
      1.54835502383621E-31   7.18575318481281E-01   2.81424681518719E-01   0.00000000000000E+00   7.18575318481281E-01
      2.81424681518719E-01   0.00000000000000E+00   7.18575318481281E-01   2.81424681518719E-01   0.00000000000000E+00
      7.50000000000000E-02
      1.00000000000000E+01   1.00000000000000E+01   0.00000000000000E+00   0.00000000000000E+00   1.68599791639782E-18
     -2.75798718115251E-23   1.68597033652601E-18  -1.11868650472166E-29   9.25000000000000E+00   9.25000000000000E+00
      0.00000000000000E+00   0.00000000000000E+00   4.54642039983219E-22  -1.68728314291319E-18  -1.68682850087320E-18
     -3.09671004767242E-31   7.18575318481281E-01   2.81424681518719E-01   0.00000000000000E+00   7.18575318481281E-01
      2.81424681518719E-01   0.00000000000000E+00   7.18575318481281E-01   2.81424681518719E-01   0.00000000000000E+00
      7.80000000000000E-02
      1.00000000000000E+01   1.00000000000000E+01   0.00000000000000E+00   0.00000000000000E+00   1.72656537722847E-18
      3.82107502998243E-25   1.72656575933597E-18  -9.13529464063364E-30   9.22000000000000E+00   9.22000000000000E+00
      0.00000000000000E+00   0.00000000000000E+00   4.65778711964252E-22  -1.72754251601210E-18  -1.72707673730014E-18
     -3.09671004767242E-31   7.18575318481281E-01   2.81424681518719E-01   0.00000000000000E+00   7.18575318481281E-01
      2.81424681518719E-01   0.00000000000000E+00   7.18575318481281E-01   2.81424681518719E-01   0.00000000000000E+00
      8.10000000000000E-02
      1.00000000000000E+01   1.00000000000000E+01   0.00000000000000E+00   0.00000000000000E+00   1.78138808804989E-18
      4.34898018158580E-24   1.78139243703007E-18   3.45283170315475E-29   9.19000000000000E+00   9.19000000000000E+00
      0.00000000000000E+00   0.00000000000000E+00   4.81572461457875E-22  -1.78167847595993E-18  -1.78119690349848E-18
     -1.54835502383621E-31   7.18575318481281E-01   2.81424681518719E-01   0.00000000000000E+00   7.18575318481281E-01
      2.81424681518719E-01   0.00000000000000E+00   7.18575318481281E-01   2.81424681518719E-01   0.00000000000000E+00
      8.40000000000000E-02
      1.00000000000000E+01   1.00000000000000E+01   0.00000000000000E+00   0.00000000000000E+00   1.89154290438165E-18
      4.72911561808607E-24   1.89154763349727E-18   1.37803597121423E-29   9.16000000000000E+00   9.16000000000000E+00
      0.00000000000000E+00   0.00000000000000E+00   5.19956906384471E-22  -1.89224350055649E-18  -1.89172354365010E-18
     -1.54835502383621E-31   7.18575318481281E-01   2.81424681518719E-01   0.00000000000000E+00   7.18575318481281E-01
      2.81424681518719E-01   0.00000000000000E+00   7.18575318481281E-01   2.81424681518719E-01   0.00000000000000E+00
      8.70000000000000E-02
      1.00000000000000E+01   1.00000000000000E+01   0.00000000000000E+00   0.00000000000000E+00   2.03837754120216E-18
      4.45573454832896E-24   2.03838199693670E-18   4.34313584186057E-29   9.13000000000000E+00   9.13000000000000E+00
      0.00000000000000E+00   0.00000000000000E+00   5.61539067493367E-22  -2.03851817799598E-18  -2.03795663892848E-18
      0.00000000000000E+00   7.18575318481281E-01   2.81424681518719E-01   0.00000000000000E+00   7.18575318481281E-01
      2.81424681518719E-01   0.00000000000000E+00   7.18575318481281E-01   2.81424681518719E-01   0.00000000000000E+00
      9.00000000000000E-02
      1.00000000000000E+01   1.00000000000000E+01   0.00000000000000E+00   0.00000000000000E+00   2.14822600211696E-18
      4.36176878226329E-24   2.14823036388574E-18   3.68895584428977E-29   9.10000000000000E+00   9.10000000000000E+00
      0.00000000000000E+00   0.00000000000000E+00   5.90284981670852E-22  -2.14864746993918E-18  -2.14805718495751E-18
     -1.54835502383621E-31   7.18575318481281E-01   2.81424681518719E-01   0.00000000000000E+00   7.18575318481281E-01
      2.81424681518719E-01   0.00000000000000E+00   7.18575318481281E-01   2.81424681518719E-01   0.00000000000000E+00
      9.30000000000000E-02
      1.00000000000000E+01   1.00000000000000E+01   0.00000000000000E+00   0.00000000000000E+00   2.21055221828967E-18
      2.12774458574336E-24   2.21055434603426E-18   1.57158034919375E-29   9.07000000000000E+00   9.07000000000000E+00
      0.00000000000000E+00   0.00000000000000E+00   6.03691235414824E-22  -2.21035341924299E-18  -2.20974972800757E-18
      0.00000000000000E+00   7.18575318481281E-01   2.81424681518719E-01   0.00000000000000E+00   7.18575318481281E-01
      2.81424681518719E-01   0.00000000000000E+00   7.18575318481281E-01   2.81424681518719E-01   0.00000000000000E+00
      9.60000000000000E-02
      1.00000000000000E+01   1.00000000000000E+01   0.00000000000000E+00   0.00000000000000E+00   2.26230875399438E-18
      6.87242013816857E-25   2.26230944123639E-18  -2.23737300944332E-29   9.04000000000000E+00   9.04000000000000E+00
      0.00000000000000E+00   0.00000000000000E+00   6.21428973334928E-22  -2.26177168183033E-18  -2.26115025285700E-18
      1.54835502383621E-31   7.18575318481281E-01   2.81424681518719E-01   0.00000000000000E+00   7.18575318481281E-01
      2.81424681518719E-01   0.00000000000000E+00   7.18575318481281E-01   2.81424681518719E-01   0.00000000000000E+00
      9.90000000000000E-02
      1.00000000000000E+01   1.00000000000000E+01   0.00000000000000E+00   0.00000000000000E+00   2.32250896991235E-18
      3.21244635795745E-24   2.32251218235870E-18   1.96641088027199E-29   9.01000000000000E+00   9.01000000000000E+00
      0.00000000000000E+00   0.00000000000000E+00  -1.80124642963138E-23  -2.32382163357419E-18  -2.32383964603849E-18
      0.00000000000000E+00   7.18575318481281E-01   2.81424681518719E-01   0.00000000000000E+00   7.18575318481281E-01
      2.81424681518719E-01   0.00000000000000E+00   7.18575318481281E-01   2.81424681518719E-01   0.00000000000000E+00
      1.02000000000000E-01
      1.00000000000000E+01   1.00000000000000E+01   0.00000000000000E+00   0.00000000000000E+00   2.41804691640365E-18
      4.80856619080574E-24   2.41805172496984E-18  -1.99350709318912E-29   8.98000000000000E+00   8.98000000000000E+00
      0.00000000000000E+00   0.00000000000000E+00   7.17033066608631E-22  -2.41950966069390E-18  -2.41879262762729E-18
      3.09671004767242E-31   7.18575318481281E-01   2.81424681518719E-01   0.00000000000000E+00   7.18575318481281E-01
      2.81424681518719E-01   0.00000000000000E+00   7.18575318481281E-01   2.81424681518719E-01   0.00000000000000E+00
      1.05000000000000E-01
      1.00000000000000E+01   1.00000000000000E+01   0.00000000000000E+00   0.00000000000000E+00   2.53550385106245E-18
      6.32058863063202E-24   2.53551017165108E-18   1.08384851668535E-29   8.95000000000000E+00   8.95000000000000E+00
      0.00000000000000E+00   0.00000000000000E+00   7.97652547214163E-22  -2.53663850850174E-18  -2.53584085595452E-18
      1.54835502383621E-31   7.18575318481281E-01   2.81424681518719E-01   0.00000000000000E+00   7.18575318481281E-01
      2.81424681518719E-01   0.00000000000000E+00   7.18575318481281E-01   2.81424681518719E-01   0.00000000000000E+00
      1.08000000000000E-01
      1.00000000000000E+01   1.00000000000000E+01   0.00000000000000E+00   0.00000000000000E+00   2.69017086071181E-18
      5.56999902433524E-24   2.69017643071083E-18  -2.99606697112307E-29   8.92000000000000E+00   8.92000000000000E+00
      0.00000000000000E+00   0.00000000000000E+00   9.14210207112036E-22  -2.69214164340190E-18  -2.69122743319478E-18
      1.54835502383621E-31   7.18575318481281E-01   2.81424681518719E-01   0.00000000000000E+00   7.18575318481281E-01
      2.81424681518719E-01   0.00000000000000E+00   7.18575318481281E-01   2.81424681518719E-01   0.00000000000000E+00
      1.11000000000000E-01
      1.00000000000000E+01   1.00000000000000E+01   0.00000000000000E+00   0.00000000000000E+00   2.91400680214938E-18
      7.57381988482730E-24   2.91401437596926E-18   1.56383857407457E-29   8.89000000000000E+00   8.89000000000000E+00
      0.00000000000000E+00   0.00000000000000E+00   1.08879622937849E-21  -2.91575654756547E-18  -2.91466775133609E-18
     -4.64506507150863E-31   7.18575318481281E-01   2.81424681518719E-01   0.00000000000000E+00   7.18575318481281E-01
      2.81424681518719E-01   0.00000000000000E+00   7.18575318481281E-01   2.81424681518719E-01   0.00000000000000E+00
      1.14000000000000E-01
      1.00000000000000E+01   1.00000000000000E+01   0.00000000000000E+00   0.00000000000000E+00   3.26977306661449E-18
      7.35464030011391E-24   3.26978042125479E-18  -2.01673241854666E-29   8.86000000000000E+00   8.86000000000000E+00
      0.00000000000000E+00   0.00000000000000E+00   1.37314203368538E-21  -3.27244295765963E-18  -3.27106981562594E-18
     -1.54835502383621E-31   7.18575318481281E-01   2.81424681518719E-01   0.00000000000000E+00   7.18575318481281E-01
      2.81424681518719E-01   0.00000000000000E+00   7.18575318481281E-01   2.81424681518719E-01   0.00000000000000E+00
      1.17000000000000E-01
      1.00000000000000E+01   1.00000000000000E+01   0.00000000000000E+00   0.00000000000000E+00   3.89765580406282E-18
      4.94975039295176E-24   3.89766075381322E-18   1.83092981568632E-29   8.83000000000000E+00   8.83000000000000E+00
      0.00000000000000E+00   0.00000000000000E+00   1.87779347242993E-21  -3.90141720563298E-18  -3.89953941216055E-18
     -3.09671004767242E-31   7.18575318481281E-01   2.81424681518719E-01   0.00000000000000E+00   7.18575318481281E-01
      2.81424681518719E-01   0.00000000000000E+00   7.18575318481281E-01   2.81424681518719E-01   0.00000000000000E+00
      1.20000000000000E-01
      1.00000000000000E+01   1.00000000000000E+01   0.00000000000000E+00   0.00000000000000E+00   5.11022876654913E-18
     -1.67161874856831E-23   5.11021205036164E-18   1.20771691859224E-29   8.80000000000000E+00   8.80000000000000E+00
      0.00000000000000E+00   0.00000000000000E+00   2.86134052916181E-21  -5.11441750282632E-18  -5.11155616229716E-18
      1.54835502383621E-31   7.18575318481281E-01   2.81424681518719E-01   0.00000000000000E+00   7.18575318481281E-01
      2.81424681518719E-01   0.00000000000000E+00   7.18575318481281E-01   2.81424681518719E-01   0.00000000000000E+00
      1.23000000000000E-01
      1.00000000000000E+01   1.00000000000000E+01   0.00000000000000E+00   0.00000000000000E+00   7.60946419908497E-18
     -6.26472628888266E-23   7.60940155182208E-18   2.08253750705970E-29   8.77000000000000E+00   8.77000000000000E+00
      0.00000000000000E+00   0.00000000000000E+00   4.97502716454692E-21  -7.61418929089012E-18  -7.60921426372557E-18
      0.00000000000000E+00   7.18575318481281E-01   2.81424681518719E-01   0.00000000000000E+00   7.18575318481281E-01
      2.81424681518719E-01   0.00000000000000E+00   7.18575318481281E-01   2.81424681518719E-01   0.00000000000000E+00
      1.26000000000000E-01
      1.00000000000000E+01   1.00000000000000E+01   0.00000000000000E+00   0.00000000000000E+00   1.34458616866921E-17
     -5.69206469301717E-23   1.34458047660452E-17  -9.01916801384592E-30   8.74000000000000E+00   8.74000000000000E+00
      0.00000000000000E+00   0.00000000000000E+00   1.02377350155524E-20  -1.34642351916057E-17  -1.34539974565902E-17
     -1.54835502383621E-31   7.18575318481281E-01   2.81424681518719E-01   0.00000000000000E+00   7.18575318481281E-01
      2.81424681518719E-01   0.00000000000000E+00   7.18575318481281E-01   2.81424681518719E-01   0.00000000000000E+00
      1.29000000000000E-01
      1.00000000000000E+01   1.00000000000000E+01   0.00000000000000E+00   0.00000000000000E+00   3.15894960904202E-17
      1.37725924102808E-23   3.15895098630126E-17   4.16894590167900E-29   8.71000000000000E+00   8.71000000000000E+00
      0.00000000000000E+00   0.00000000000000E+00   2.72577853863870E-20  -3.16257329691886E-17  -3.15984751838023E-17
      0.00000000000000E+00   7.18575318481281E-01   2.81424681518719E-01   0.00000000000000E+00   7.18575318481281E-01
      2.81424681518719E-01   0.00000000000000E+00   7.18575318481281E-01   2.81424681518719E-01   0.00000000000000E+00
      1.32000000000000E-01
      1.00000000000000E+01   1.00000000000000E+01   0.00000000000000E+00   0.00000000000000E+00   1.00844610427551E-17
      6.12732561400332E-22   1.00850737753165E-17   1.97415265539117E-30   8.68000000000000E+00   8.68000000000000E+00