DF-ISE text

Info {
  version   = 1.0
  type      = xyplot
  datasets  = [
    "time"
    "cathode OuterVoltage" "cathode InnerVoltage" "cathode QuasiFermiPotential" "cathode DisplacementCurrent" "cathode eCurrent"
    "cathode hCurrent" "cathode TotalCurrent" "cathode Charge" "anode OuterVoltage" "anode InnerVoltage"
    "anode QuasiFermiPotential" "anode DisplacementCurrent" "anode eCurrent" "anode hCurrent" "anode TotalCurrent"
    "anode Charge" ]
  functions = [
    Time
    OuterVoltage InnerVoltage QuasiFermiPotential DisplacementCurrent eCurrent
    hCurrent TotalCurrent Charge OuterVoltage InnerVoltage
    QuasiFermiPotential DisplacementCurrent eCurrent hCurrent TotalCurrent
    Charge ]
}

Data {
      0.00000000000000E+00
      3.00000000000000E+01   3.00000000000000E+01   0.00000000000000E+00   0.00000000000000E+00   8.22530204505710E-16
      4.86513718353795E-19   8.23016718224064E-16   2.05646655735341E-13   3.00000000000000E+01   3.00000000000000E+01
      0.00000000000000E+00   0.00000000000000E+00   4.41301250681589E-90  -4.86513718353846E-19  -4.86513718353846E-19
     -6.66191048043026E-14
      0.00000000000000E+00
      3.00000000000000E+01   3.00000000000000E+01   0.00000000000000E+00   0.00000000000000E+00  -3.51497181388312E-14
     -1.07559168986858E-17  -3.51604740557299E-14   2.05646648404429E-13   3.00000000000000E+01   3.00000000000000E+01
      0.00000000000000E+00   0.00000000000000E+00   6.32586600291699E-15  -6.31511008601830E-15   1.07559168986868E-17
     -6.66190974736504E-14
      0.00000000000000E+00
      3.00000000000000E+01   3.00000000000000E+01   0.00000000000000E+00   0.00000000000000E+00  -3.51209677955283E-14
      1.23044522013355E-16  -3.49979232735150E-14   2.05646648404429E-13   3.00000000000000E+01   3.00000000000000E+01
      0.00000000000000E+00   0.00000000000000E+00   6.32646666020193E-15  -6.44951118221529E-15  -1.23044522013356E-16
     -6.66190974736506E-14
      3.34897976680384E-03
      3.00000000000000E+01   3.00000000000000E+01   0.00000000000000E+00   0.00000000000000E+00  -3.79015775529524E-14
     -2.00067014160342E-17  -3.79215842543684E-14   2.08498495090875E-13   2.98995306069959E+01   2.98995306069959E+01
      0.00000000000000E+00   0.00000000000000E+00   6.32646666020193E-15  -6.30645995452260E-15   2.00067056793333E-17
     -6.94740910205405E-14
      3.97639932481963E-03
      3.00000000000000E+01   3.00000000000000E+01   0.00000000000000E+00   0.00000000000000E+00  -4.15769096252238E-14
      3.82165852592492E-16  -4.11947437726313E-14   2.09030586099233E-13   2.98807080202554E+01   2.98807080202554E+01
      0.00000000000000E+00   0.00000000000000E+00   6.32711400781081E-15  -6.70927994938873E-15  -3.82165941577924E-16
     -7.00067158409876E-14
      4.09529525823532E-03
      3.00000000000000E+01   3.00000000000000E+01   0.00000000000000E+00   0.00000000000000E+00  -4.39891622285142E-14
     -1.58102517664990E-16  -4.41472647461792E-14   2.09131418586604E-13   2.98771411422529E+01   2.98771411422529E+01
      0.00000000000000E+00   0.00000000000000E+00   6.32711400781081E-15  -6.16901148608920E-15   1.58102521721608E-16
     -7.01075774331372E-14
      2.11968567536189E-02
      3.00000000000000E+01   3.00000000000004E+01   0.00000000000000E+00   0.00000000000000E+00   1.01165112280660E-13
     -1.01341507335349E-13  -1.76395054689050E-16  -1.83926279316324E-14   2.93640942973914E+01   2.93640942973914E+01
      0.00000000000000E+00   0.00000000000000E+00   2.54365003403814E-16  -7.89318154501382E-17   1.75433187953676E-16
      1.83926279316360E-14
      2.19747223868028E-02
      3.00000000000000E+01   3.00000000000004E+01   0.00000000000000E+00   0.00000000000000E+00   1.07652879295231E-13
     -1.07899000018482E-13  -2.46120723250776E-16  -1.76086167695296E-14   2.93407583283959E+01   2.93407583283959E+01
      0.00000000000000E+00   0.00000000000000E+00   2.77172560698308E-16  -3.32033094993597E-17   2.43969251198949E-16
      1.76086167695317E-14
      2.24548863579039E-02
      3.00000000000000E+01   3.00000000000004E+01   0.00000000000000E+00   0.00000000000000E+00   7.99947081468074E-14
     -8.00645449390891E-14  -6.98367922817381E-17  -1.71225016768480E-14   2.93263534092629E+01   2.93263534092629E+01
      0.00000000000000E+00   0.00000000000000E+00   2.40901018521939E-17   4.57267668763596E-17   6.98168687285535E-17
      1.71225016768468E-14
      2.27475789020165E-02
      3.00000000000000E+01   3.00000000000004E+01   0.00000000000000E+00   0.00000000000000E+00   7.96645946932680E-14
     -7.98205384283996E-14  -1.55943735131687E-16  -1.68253495362135E-14   2.93175726329395E+01   2.93175726329395E+01
      0.00000000000000E+00   0.00000000000000E+00   1.31181951304218E-16   2.40385112313441E-17   1.55220462535562E-16
      1.68253495362145E-14
      2.29643881939517E-02
      3.00000000000000E+01   3.00000000000004E+01   0.00000000000000E+00   0.00000000000000E+00   1.29263832790477E-13
     -1.29380648946195E-13  -1.16816155718206E-16  -1.66048221462057E-14   2.93110683541814E+01   2.93110683541814E+01
      0.00000000000000E+00   0.00000000000000E+00   6.44801717700568E-17   5.15974185827592E-17   1.16077590352816E-16
      1.66048221462041E-14
      2.30898565341920E-02
      3.00000000000000E+01   3.00000000000004E+01   0.00000000000000E+00   0.00000000000000E+00   9.68041080435032E-14
     -9.69306191485776E-14  -1.26511105074379E-16  -1.64770378448136E-14   2.93073043039742E+01   2.93073043039742E+01
      0.00000000000000E+00   0.00000000000000E+00   9.56907603010549E-17   2.97040530143889E-17   1.25394813315444E-16
      1.64770378448121E-14
      2.31653698871144E-02
      3.00000000000000E+01   3.00000000000004E+01   0.00000000000000E+00   0.00000000000000E+00   8.70384284579753E-14
     -8.71871804178037E-14  -1.48751959828459E-16  -1.64000717792251E-14   2.93050389033866E+01   2.93050389033865E+01
      0.00000000000000E+00   0.00000000000000E+00   1.04481335328365E-16   4.34141544345029E-17   1.47895489762868E-16
      1.64000717792256E-14
      2.32125657326909E-02
      3.00000000000000E+01   3.00000000000004E+01   0.00000000000000E+00   0.00000000000000E+00   9.40084148516602E-14
     -9.39532536823795E-14   5.51611692806484E-17  -1.63519453520804E-14   2.93036230280193E+01   2.93036230280193E+01
      0.00000000000000E+00   0.00000000000000E+00   1.05827939126316E-16  -1.61362401916144E-16  -5.55344627898285E-17
      1.63519453520790E-14
      2.32374503734913E-02
      3.00000000000000E+01   3.00000000000004E+01   0.00000000000000E+00   0.00000000000000E+00   1.15499008506593E-13
     -1.15681857965523E-13  -1.82849458929263E-16  -1.63265630061144E-14   2.93028764887953E+01   2.93028764887952E+01
      0.00000000000000E+00   0.00000000000000E+00   1.04272672305325E-16   7.82099717286641E-17   1.82482644033989E-16
      1.63265630061127E-14
      2.32518512072878E-02
      3.00000000000000E+01   3.00000000000004E+01   0.00000000000000E+00   0.00000000000000E+00   1.17860844063503E-13
     -1.17805930667351E-13   5.49133961517748E-17  -1.63118719209485E-14   2.93024444637814E+01   2.93024444637814E+01
      0.00000000000000E+00   0.00000000000000E+00   3.44038624874933E-17  -8.94430358276241E-17  -5.50391733401307E-17
      1.63118719209442E-14
      2.32643319299114E-02
      3.00000000000000E+01   3.00000000000004E+01   0.00000000000000E+00   0.00000000000000E+00   8.29555694454382E-14
     -8.31654660782540E-14  -2.09896632815790E-16  -1.62991383240546E-14   2.93020700421027E+01   2.93020700421027E+01
      0.00000000000000E+00   0.00000000000000E+00   1.69383896644620E-16   3.93230320153101E-17   2.08706928659930E-16
      1.62991383240528E-14
      2.32759806043602E-02
      3.00000000000000E+01   3.00000000000004E+01   0.00000000000000E+00   0.00000000000000E+00   9.22211312685431E-14
     -9.22842766296269E-14  -6.31453610838517E-17  -1.62872525238810E-14   2.93017205818692E+01   2.93017205818692E+01
      0.00000000000000E+00   0.00000000000000E+00   4.89690915804837E-17   1.39983681179652E-17   6.29674596984489E-17
      1.62872525238781E-14
      2.32830812623960E-02
      3.00000000000000E+01   3.00000000000004E+01   0.00000000000000E+00   0.00000000000000E+00   1.04587933121979E-13
     -1.04730881193129E-13  -1.42948071150413E-16  -1.62800067954898E-14   2.93015075621281E+01   2.93015075621281E+01
      0.00000000000000E+00   0.00000000000000E+00   1.24925491260144E-16   1.71551781309235E-17   1.42080669391067E-16
      1.62800067954915E-14
      2.32866882067430E-02
      3.00000000000000E+01   3.00000000000004E+01   0.00000000000000E+00   0.00000000000000E+00   1.05227276538280E-13
     -1.05231650594484E-13  -4.37405620384003E-18  -1.62763260065525E-14   2.93013993537977E+01   2.93013993537977E+01
      0.00000000000000E+00   0.00000000000000E+00   2.99152273820052E-17  -2.56468009456900E-17   4.26842643631522E-18
      1.62763260065490E-14
      2.32885204379892E-02
      3.00000000000000E+01   3.00000000000004E+01   0.00000000000000E+00   0.00000000000000E+00   9.47645878926022E-14
     -9.50558984629347E-14  -2.91310570332509E-16  -1.62744562248050E-14   2.93013443868603E+01   2.93013443868603E+01
      0.00000000000000E+00   0.00000000000000E+00   2.25534067853939E-16   6.42865370329193E-17   2.89820604886859E-16
      1.62744562248051E-14
      2.32896514449313E-02
      3.00000000000000E+01   3.00000000000004E+01   0.00000000000000E+00   0.00000000000000E+00   9.41345151592923E-14
     -9.41969641322807E-14  -6.24489729884346E-17  -1.62733020252801E-14   2.93013104566521E+01   2.93013104566520E+01
      0.00000000000000E+00   0.00000000000000E+00   3.58926254489280E-17   2.65382488168744E-17   6.24308742658024E-17
      1.62733020252763E-14
      2.32906316509477E-02
      3.00000000000000E+01   3.00000000000004E+01   0.00000000000000E+00   0.00000000000000E+00   8.98574780811597E-14
     -8.98480982427141E-14   9.37983844557869E-18  -1.62723017108365E-14   2.93012810504716E+01   2.93012810504716E+01
      0.00000000000000E+00   0.00000000000000E+00   1.07282719879354E-16  -1.16834660018916E-16  -9.55194013956216E-18
      1.62723017108370E-14
      2.32915029451846E-02
      3.00000000000000E+01   3.00000000000004E+01   0.00000000000000E+00   0.00000000000000E+00   8.60404462135798E-14
     -8.62011758049503E-14  -1.60729591370464E-16  -1.62714125360574E-14   2.93012549116445E+01   2.93012549116445E+01
      0.00000000000000E+00   0.00000000000000E+00   1.01678739990026E-16   5.87359652554493E-17   1.60414705245475E-16
      1.62714125360566E-14
      2.32920407811333E-02
      3.00000000000000E+01   3.00000000000004E+01   0.00000000000000E+00   0.00000000000000E+00   7.33210327941237E-14
     -7.34681783019410E-14  -1.47145507817270E-16  -1.62708636597374E-14   2.93012387765660E+01   2.93012387765660E+01
      0.00000000000000E+00   0.00000000000000E+00   2.81076307000912E-16  -1.37489825782184E-16   1.43586481218728E-16
      1.62708636597383E-14
      2.32923209040232E-02
      3.00000000000000E+01   3.00000000000004E+01   0.00000000000000E+00   0.00000000000000E+00   9.88445283340020E-14
     -9.88742440297789E-14  -2.97156957768974E-17  -1.62705777857474E-14   2.93012303728793E+01   2.93012303728793E+01
      0.00000000000000E+00   0.00000000000000E+00   2.26673809760893E-17   6.99937794064381E-18   2.96667589167331E-17
      1.62705777857455E-14
      2.32924894965033E-02
      3.00000000000000E+01   3.00000000000004E+01   0.00000000000000E+00   0.00000000000000E+00   9.97836786372928E-14
     -9.98472410563685E-14  -6.35624190756985E-17  -1.62704057316574E-14   2.93012253151049E+01   2.93012253151049E+01
      0.00000000000000E+00   0.00000000000000E+00   8.30516266589547E-17  -2.05395389052123E-17   6.25120877537425E-17
      1.62704057316568E-14
      2.32925729688603E-02
      3.00000000000000E+01   3.00000000000004E+01   0.00000000000000E+00   0.00000000000000E+00   9.84719899321079E-14
     -9.85841192437965E-14  -1.12129311688591E-16  -1.62703205453285E-14   2.93012228109342E+01   2.93012228109342E+01
      0.00000000000000E+00   0.00000000000000E+00   1.29787824787638E-16  -1.80499443853037E-17   1.11737880402335E-16
      1.62703205453272E-14
      2.32926340273437E-02
      3.00000000000000E+01   3.00000000000004E+01   0.00000000000000E+00   0.00000000000000E+00   8.78095975566456E-14
     -8.81052993144814E-14  -2.95701757835869E-16  -1.62702582330716E-14   2.93012209791797E+01   2.93012209791797E+01
      0.00000000000000E+00   0.00000000000000E+00   2.27384424524900E-16   6.65898130330995E-17   2.93974237558000E-16
      1.62702582330726E-14
      2.32926896584063E-02
      3.00000000000000E+01   3.00000000000004E+01   0.00000000000000E+00   0.00000000000000E+00   9.80722206590554E-14
     -9.80747012953282E-14  -2.48063627282670E-18  -1.62702014596563E-14   2.93012193102478E+01   2.93012193102478E+01
      0.00000000000000E+00   0.00000000000000E+00   5.20351614200814E-17  -4.99405577308939E-17   2.09460368918746E-18
      1.62702014596544E-14
      2.32927298363960E-02
      3.00000000000000E+01   3.00000000000004E+01   0.00000000000000E+00   0.00000000000000E+00   9.49618149447694E-14
     -9.54464883775461E-14  -4.84673432776773E-16  -1.62701604566188E-14   2.93012181049081E+01   2.93012181049081E+01
      0.00000000000000E+00   0.00000000000000E+00   4.67379029274100E-16   1.34611755626088E-17   4.80840204836709E-16
      1.62701604566183E-14
      2.32927552576549E-02
      3.00000000000000E+01   3.00000000000004E+01   0.00000000000000E+00   0.00000000000000E+00   8.63409466714837E-14
     -8.66707572947321E-14  -3.29810623248376E-16  -1.62701345133321E-14   2.93012173422704E+01   2.93012173422704E+01
      0.00000000000000E+00   0.00000000000000E+00   3.47587354209554E-16  -2.03248595731143E-17   3.27262494636440E-16
      1.62701345133359E-14
      2.32927681709744E-02
      3.00000000000000E+01   3.00000000000004E+01   0.00000000000000E+00   0.00000000000000E+00   1.05358739134454E-13
     -1.05178421331010E-13   1.80317803444059E-16  -1.62701213348348E-14   2.93012169548708E+01   2.93012169548708E+01
      0.00000000000000E+00   0.00000000000000E+00   1.39063348671295E-17  -1.94239879527196E-16  -1.80333544660067E-16
      1.62701213348314E-14
      2.32927759428797E-02
      3.00000000000000E+01   3.00000000000004E+01   0.00000000000000E+00   0.00000000000000E+00   9.45451191493781E-14
     -9.49984533427924E-14  -4.53334193414214E-16  -1.62701134033309E-14   2.93012167217136E+01   2.93012167217136E+01
      0.00000000000000E+00   0.00000000000000E+00   3.58225975494013E-16   9.26920455626891E-17   4.50918021056702E-16
      1.62701134033312E-14
      2.32927831966580E-02
      3.00000000000000E+01   3.00000000000004E+01   0.00000000000000E+00   0.00000000000000E+00   1.06899247939208E-13
     -1.07005958774596E-13  -1.06710835387850E-16  -1.62701060005935E-14   2.93012165041003E+01   2.93012165041003E+01
      0.00000000000000E+00   0.00000000000000E+00   8.19078610494891E-17   2.34517385493360E-17   1.05359599598825E-16
      1.62701060005921E-14
      2.32927885698270E-02
      3.00000000000000E+01   3.00000000000004E+01   0.00000000000000E+00   0.00000000000000E+00   9.77028309394738E-14
     -9.77558388118285E-14  -5.30078723547058E-17  -1.62701005170844E-14   2.93012163429052E+01   2.93012163429052E+01
      0.00000000000000E+00   0.00000000000000E+00   1.80399159923898E-16  -1.27823606652113E-16   5.25755532717846E-17
      1.62701005170836E-14
      2.32927918865981E-02
      3.00000000000000E+01   3.00000000000004E+01   0.00000000000000E+00   0.00000000000000E+00   9.70662469124945E-14
     -9.72764055494142E-14  -2.10158636919659E-16  -1.62700971322018E-14   2.93012162434021E+01   2.93012162434020E+01
      0.00000000000000E+00   0.00000000000000E+00   2.98118642990492E-16  -9.14528292538592E-17   2.06665813736633E-16
      1.62700971322021E-14
      2.32927935501021E-02
      3.00000000000000E+01   3.00000000000004E+01   0.00000000000000E+00   0.00000000000000E+00   9.99969355644041E-14
     -1.00173379737575E-13  -1.76444173171151E-16  -1.62700954345369E-14   2.93012161934969E+01   2.93012161934969E+01
      0.00000000000000E+00   0.00000000000000E+00   1.52299498445535E-16   2.22618739518870E-17   1.74561372397422E-16
      1.62700954345373E-14
      2.32927944058140E-02
      3.00000000000000E+01   3.00000000000004E+01   0.00000000000000E+00   0.00000000000000E+00   1.06958069200449E-13
     -1.06775214952195E-13   1.82854248253837E-16  -1.62700945612527E-14   2.93012161678256E+01   2.93012161678256E+01
      0.00000000000000E+00   0.00000000000000E+00   3.94501212068026E-17  -2.22596005305260E-16  -1.83145884098457E-16
      1.62700945612512E-14
      2.32927950317514E-02
      3.00000000000000E+01   3.00000000000004E+01   0.00000000000000E+00   0.00000000000000E+00   1.05556616389603E-13
     -1.05629486977484E-13  -7.28705878812327E-17  -1.62700939224614E-14   2.93012161490475E+01   2.93012161490475E+01
      0.00000000000000E+00   0.00000000000000E+00   4.33216132088339E-17   2.91977598623831E-17   7.25193730712170E-17
      1.62700939224593E-14
      2.32927955672757E-02
      3.00000000000000E+01   3.00000000000004E+01   0.00000000000000E+00   0.00000000000000E+00   9.75583566013140E-14
     -9.80797616308601E-14  -5.21405029546107E-16  -1.62700933759395E-14   2.93012161329817E+01   2.93012161329817E+01
      0.00000000000000E+00   0.00000000000000E+00   3.42353784445844E-16   1.75045157349512E-16   5.17398941795356E-16
      1.62700933759404E-14
